 Entering Gaussian System, Link 0=g16
 Input=/gpfs1/home/osl/test/Benzene/Gaussian 16 Excited States TDA 10 Singlets 10 Triplets PBE0 (GD3BJ) Gas Phase Pople Basis Sets 6-31G**/Input/Benzene.com
 Output=/gpfs1/home/osl/test/Benzene/Gaussian 16 Excited States TDA 10 Singlets 10 Triplets PBE0 (GD3BJ) Gas Phase Pople Basis Sets 6-31G**/Output/Benzene.log
 Initial command:
 /gpfs1/apps/software/Gaussian16/AVX/g16/l1.exe "/scratch/tmp/osl/4def6b1611a9464b86d750a3861a1fb0/Gau-30622.inp" -scrdir="/scratch/tmp/osl/4def6b1611a9464b86d750a3861a1fb0/"
 Entering Link 1 = /gpfs1/apps/software/Gaussian16/AVX/g16/l1.exe PID=     30623.
  
 Copyright (c) 1988-2019, Gaussian, Inc.  All Rights Reserved.
  
 This is part of the Gaussian(R) 16 program.  It is based on
 the Gaussian(R) 09 system (copyright 2009, Gaussian, Inc.),
 the Gaussian(R) 03 system (copyright 2003, Gaussian, Inc.),
 the Gaussian(R) 98 system (copyright 1998, Gaussian, Inc.),
 the Gaussian(R) 94 system (copyright 1995, Gaussian, Inc.),
 the Gaussian 92(TM) system (copyright 1992, Gaussian, Inc.),
 the Gaussian 90(TM) system (copyright 1990, Gaussian, Inc.),
 the Gaussian 88(TM) system (copyright 1988, Gaussian, Inc.),
 the Gaussian 86(TM) system (copyright 1986, Carnegie Mellon
 University), and the Gaussian 82(TM) system (copyright 1983,
 Carnegie Mellon University). Gaussian is a federally registered
 trademark of Gaussian, Inc.
  
 This software contains proprietary and confidential information,
 including trade secrets, belonging to Gaussian, Inc.
  
 This software is provided under written license and may be
 used, copied, transmitted, or stored only in accord with that
 written license.
  
 The following legend is applicable only to US Government
 contracts under FAR:
  
                    RESTRICTED RIGHTS LEGEND
  
 Use, reproduction and disclosure by the US Government is
 subject to restrictions as set forth in subparagraphs (a)
 and (c) of the Commercial Computer Software - Restricted
 Rights clause in FAR 52.227-19.
  
 Gaussian, Inc.
 340 Quinnipiac St., Bldg. 40, Wallingford CT 06492
  
  
 ---------------------------------------------------------------
 Warning -- This program may not be used in any manner that
 competes with the business of Gaussian, Inc. or will provide
 assistance to any competitor of Gaussian, Inc.  The licensee
 of this program is prohibited from giving any competitor of
 Gaussian, Inc. access to this program.  By using this program,
 the user acknowledges that Gaussian, Inc. is engaged in the
 business of creating and licensing software in the field of
 computational chemistry and represents and warrants to the
 licensee that it is not a competitor of Gaussian, Inc. and that
 it will not use this program in any manner prohibited above.
 ---------------------------------------------------------------
  

 Cite this work as:
 Gaussian 16, Revision C.01,
 M. J. Frisch, G. W. Trucks, H. B. Schlegel, G. E. Scuseria, 
 M. A. Robb, J. R. Cheeseman, G. Scalmani, V. Barone, 
 G. A. Petersson, H. Nakatsuji, X. Li, M. Caricato, A. V. Marenich, 
 J. Bloino, B. G. Janesko, R. Gomperts, B. Mennucci, H. P. Hratchian, 
 J. V. Ortiz, A. F. Izmaylov, J. L. Sonnenberg, D. Williams-Young, 
 F. Ding, F. Lipparini, F. Egidi, J. Goings, B. Peng, A. Petrone, 
 T. Henderson, D. Ranasinghe, V. G. Zakrzewski, J. Gao, N. Rega, 
 G. Zheng, W. Liang, M. Hada, M. Ehara, K. Toyota, R. Fukuda, 
 J. Hasegawa, M. Ishida, T. Nakajima, Y. Honda, O. Kitao, H. Nakai, 
 T. Vreven, K. Throssell, J. A. Montgomery, Jr., J. E. Peralta, 
 F. Ogliaro, M. J. Bearpark, J. J. Heyd, E. N. Brothers, K. N. Kudin, 
 V. N. Staroverov, T. A. Keith, R. Kobayashi, J. Normand, 
 K. Raghavachari, A. P. Rendell, J. C. Burant, S. S. Iyengar, 
 J. Tomasi, M. Cossi, J. M. Millam, M. Klene, C. Adamo, R. Cammi, 
 J. W. Ochterski, R. L. Martin, K. Morokuma, O. Farkas, 
 J. B. Foresman, and D. J. Fox, Gaussian, Inc., Wallingford CT, 2019.
 
 ******************************************
 Gaussian 16:  ES64L-G16RevC.01  3-Jul-2019
                17-Jul-2023 
 ******************************************
 %Chk="Benzene.chk"
 %Rwf="Benzene.rwf"
 %NProcShared=2
 Will use up to    2 processors via shared memory.
 %Mem=2GB
 ----------------------------------------------------------------------
 #p TDA=(nstates=10, root=1, 50-50) PBE1PBE/6-31G** SCF=(DIIS) Symmetry
 =(Tight) EmpiricalDispersion=(GD3BJ) Integral=(Ultrafine) Population=(
 Regular) Density=(Current) 6D 10F GFInput
 ----------------------------------------------------------------------
 1/30=1,38=1,172=1/1;
 2/12=2,40=1/2;
 3/5=1,6=6,7=101,8=22,11=9,24=10,25=1,30=1,71=1,74=-13,75=-5,124=41/1,2,3,8;
 4//1;
 5/5=2,22=2,38=5/2;
 8/6=1,10=2,107=1,108=10/1;
 9/8=1,15=1,41=10,42=1,48=2/14;
 10/5=4,13=10,28=1/2;
 6/22=-1/1;
 99/5=1,9=1/99;
 Leave Link    1 at Mon Jul 17 22:00:37 2023, MaxMem=   268435456 cpu:               0.3 elap:               0.2
 (Enter /gpfs1/apps/software/Gaussian16/AVX/g16/l101.exe)
 ----------------------------------------------------------------------
 Benzene_Excited_States_TDA_10_Singlets_10_Triplets_PBE0__GD3BJ__Gas_Ph
 ase_Pople_Basis_Sets_6_31G__
 ----------------------------------------------------------------------
 Symbolic Z-matrix:
 Charge =  0 Multiplicity = 1
 C                    -1.38918   0.09106   0.00001 
 C                    -0.77341  -1.15755   0.00012 
 C                     0.61572  -1.24855  -0.00012 
 C                     1.3892   -0.09102   0. 
 C                     0.77343   1.15752   0.00013 
 C                    -0.61576   1.24855  -0.00013 
 H                    -2.47301   0.16202  -0.00003 
 H                    -1.37688  -2.06062  -0.00012 
 H                     1.09618  -2.22266   0.00013 
 H                     2.47302  -0.16208  -0.00003 
 H                     1.37686   2.06061  -0.00013 
 H                    -1.09617   2.22268   0.00012 
 
 ITRead=  0  0  0  0  0  0  0  0  0  0  0  0
 MicOpt= -1 -1 -1 -1 -1 -1 -1 -1 -1 -1 -1 -1
 NAtoms=     12 NQM=       12 NQMF=       0 NMMI=      0 NMMIF=      0
                NMic=       0 NMicF=      0.
                    Isotopes and Nuclear Properties:
 (Nuclear quadrupole moments (NQMom) in fm**2, nuclear magnetic moments (NMagM)
  in nuclear magnetons)

  Atom         1           2           3           4           5           6           7           8           9          10
 IAtWgt=          12          12          12          12          12          12           1           1           1           1
 AtmWgt=  12.0000000  12.0000000  12.0000000  12.0000000  12.0000000  12.0000000   1.0078250   1.0078250   1.0078250   1.0078250
 NucSpn=           0           0           0           0           0           0           1           1           1           1
 AtZEff=  -0.0000000  -0.0000000  -0.0000000  -0.0000000  -0.0000000  -0.0000000  -0.0000000  -0.0000000  -0.0000000  -0.0000000
 NQMom=    0.0000000   0.0000000   0.0000000   0.0000000   0.0000000   0.0000000   0.0000000   0.0000000   0.0000000   0.0000000
 NMagM=    0.0000000   0.0000000   0.0000000   0.0000000   0.0000000   0.0000000   2.7928460   2.7928460   2.7928460   2.7928460
 AtZNuc=   6.0000000   6.0000000   6.0000000   6.0000000   6.0000000   6.0000000   1.0000000   1.0000000   1.0000000   1.0000000

  Atom        11          12
 IAtWgt=           1           1
 AtmWgt=   1.0078250   1.0078250
 NucSpn=           1           1
 AtZEff=  -0.0000000  -0.0000000
 NQMom=    0.0000000   0.0000000
 NMagM=    2.7928460   2.7928460
 AtZNuc=   1.0000000   1.0000000
 Leave Link  101 at Mon Jul 17 22:00:37 2023, MaxMem=   268435456 cpu:               0.4 elap:               0.2
 (Enter /gpfs1/apps/software/Gaussian16/AVX/g16/l202.exe)
                          Input orientation:                          
 ---------------------------------------------------------------------
 Center     Atomic      Atomic             Coordinates (Angstroms)
 Number     Number       Type             X           Y           Z
 ---------------------------------------------------------------------
      1          6           0       -1.389180    0.091060    0.000010
      2          6           0       -0.773410   -1.157550    0.000120
      3          6           0        0.615720   -1.248550   -0.000120
      4          6           0        1.389200   -0.091020    0.000000
      5          6           0        0.773430    1.157520    0.000130
      6          6           0       -0.615760    1.248550   -0.000130
      7          1           0       -2.473010    0.162020   -0.000030
      8          1           0       -1.376880   -2.060620   -0.000120
      9          1           0        1.096180   -2.222660    0.000130
     10          1           0        2.473020   -0.162080   -0.000030
     11          1           0        1.376860    2.060610   -0.000130
     12          1           0       -1.096170    2.222680    0.000120
 ---------------------------------------------------------------------
                    Distance matrix (angstroms):
                    1          2          3          4          5
     1  C    0.000000
     2  C    1.392192   0.000000
     3  C    2.411261   1.392107   0.000000
     4  C    2.784340   2.411300   1.392173   0.000000
     5  C    2.411269   2.784289   2.411233   1.392130   0.000000
     6  C    1.392107   2.411259   2.784251   2.411289   1.392169
     7  H    1.086150   2.151721   3.395580   3.870490   3.395643
     8  H    2.151715   1.086145   2.151723   3.395662   3.870434
     9  H    3.395632   2.151703   1.086155   2.151685   3.395554
    10  H    3.870487   3.395625   2.151739   1.086147   2.151732
    11  H    3.395601   3.870428   3.395567   2.151665   1.086140
    12  H    2.151664   3.395604   3.870401   3.395625   2.151737
                    6          7          8          9         10
     6  C    0.000000
     7  H    2.151726   0.000000
     8  H    3.395572   2.478231   0.000000
     9  H    3.870405   4.292530   2.478363   0.000000
    10  H    3.395650   4.956637   4.292573   2.478241   0.000000
    11  H    2.151738   4.292568   4.956573   4.292457   2.478289
    12  H    1.086151   2.478307   4.292488   4.956556   4.292575
                   11         12
    11  H    0.000000
    12  H    2.478335   0.000000
 Stoichiometry    C6H6
 Framework group  C1[X(C6H6)]
 Deg. of freedom    30
 Full point group                 C1      NOp   1
 Largest Abelian subgroup         C1      NOp   1
 Largest concise Abelian subgroup C1      NOp   1
                         Standard orientation:                         
 ---------------------------------------------------------------------
 Center     Atomic      Atomic             Coordinates (Angstroms)
 Number     Number       Type             X           Y           Z
 ---------------------------------------------------------------------
      1          6           0       -1.383874   -0.151677   -0.000010
      2          6           0       -0.823254    1.122648   -0.000120
      3          6           0        0.560573    1.274263    0.000120
      4          6           0        1.383896    0.151638    0.000000
      5          6           0        0.823272   -1.122617   -0.000130
      6          6           0       -0.560613   -1.274264    0.000130
      7          1           0       -2.463568   -0.269930    0.000030
      8          1           0       -1.465609    1.998485    0.000120
      9          1           0        0.998008    2.268438   -0.000130
     10          1           0        2.463575    0.269991    0.000030
     11          1           0        1.465589   -1.998476    0.000130
     12          1           0       -0.997997   -2.268457   -0.000120
 ---------------------------------------------------------------------
 Rotational constants (GHZ):           5.7209212           5.7206808           2.8604005
 Leave Link  202 at Mon Jul 17 22:00:37 2023, MaxMem=   268435456 cpu:               0.0 elap:               0.0
 (Enter /gpfs1/apps/software/Gaussian16/AVX/g16/l301.exe)
 Standard basis: 6-31G(d,p) (6D, 10F)
 Ernie: Thresh=  0.10000D-02 Tol=  0.10000D-05 Strict=F.
 AO basis set in the form of general basis input (Overlap normalization):
      1 0
 S   6 1.00       0.000000000000
      0.3047524880D+04  0.1834737132D-02
      0.4573695180D+03  0.1403732281D-01
      0.1039486850D+03  0.6884262226D-01
      0.2921015530D+02  0.2321844432D+00
      0.9286662960D+01  0.4679413484D+00
      0.3163926960D+01  0.3623119853D+00
 SP   3 1.00       0.000000000000
      0.7868272350D+01 -0.1193324198D+00  0.6899906659D-01
      0.1881288540D+01 -0.1608541517D+00  0.3164239610D+00
      0.5442492580D+00  0.1143456438D+01  0.7443082909D+00
 SP   1 1.00       0.000000000000
      0.1687144782D+00  0.1000000000D+01  0.1000000000D+01
 D   1 1.00       0.000000000000
      0.8000000000D+00  0.1000000000D+01
 ****
      2 0
 S   6 1.00       0.000000000000
      0.3047524880D+04  0.1834737132D-02
      0.4573695180D+03  0.1403732281D-01
      0.1039486850D+03  0.6884262226D-01
      0.2921015530D+02  0.2321844432D+00
      0.9286662960D+01  0.4679413484D+00
      0.3163926960D+01  0.3623119853D+00
 SP   3 1.00       0.000000000000
      0.7868272350D+01 -0.1193324198D+00  0.6899906659D-01
      0.1881288540D+01 -0.1608541517D+00  0.3164239610D+00
      0.5442492580D+00  0.1143456438D+01  0.7443082909D+00
 SP   1 1.00       0.000000000000
      0.1687144782D+00  0.1000000000D+01  0.1000000000D+01
 D   1 1.00       0.000000000000
      0.8000000000D+00  0.1000000000D+01
 ****
      3 0
 S   6 1.00       0.000000000000
      0.3047524880D+04  0.1834737132D-02
      0.4573695180D+03  0.1403732281D-01
      0.1039486850D+03  0.6884262226D-01
      0.2921015530D+02  0.2321844432D+00
      0.9286662960D+01  0.4679413484D+00
      0.3163926960D+01  0.3623119853D+00
 SP   3 1.00       0.000000000000
      0.7868272350D+01 -0.1193324198D+00  0.6899906659D-01
      0.1881288540D+01 -0.1608541517D+00  0.3164239610D+00
      0.5442492580D+00  0.1143456438D+01  0.7443082909D+00
 SP   1 1.00       0.000000000000
      0.1687144782D+00  0.1000000000D+01  0.1000000000D+01
 D   1 1.00       0.000000000000
      0.8000000000D+00  0.1000000000D+01
 ****
      4 0
 S   6 1.00       0.000000000000
      0.3047524880D+04  0.1834737132D-02
      0.4573695180D+03  0.1403732281D-01
      0.1039486850D+03  0.6884262226D-01
      0.2921015530D+02  0.2321844432D+00
      0.9286662960D+01  0.4679413484D+00
      0.3163926960D+01  0.3623119853D+00
 SP   3 1.00       0.000000000000
      0.7868272350D+01 -0.1193324198D+00  0.6899906659D-01
      0.1881288540D+01 -0.1608541517D+00  0.3164239610D+00
      0.5442492580D+00  0.1143456438D+01  0.7443082909D+00
 SP   1 1.00       0.000000000000
      0.1687144782D+00  0.1000000000D+01  0.1000000000D+01
 D   1 1.00       0.000000000000
      0.8000000000D+00  0.1000000000D+01
 ****
      5 0
 S   6 1.00       0.000000000000
      0.3047524880D+04  0.1834737132D-02
      0.4573695180D+03  0.1403732281D-01
      0.1039486850D+03  0.6884262226D-01
      0.2921015530D+02  0.2321844432D+00
      0.9286662960D+01  0.4679413484D+00
      0.3163926960D+01  0.3623119853D+00
 SP   3 1.00       0.000000000000
      0.7868272350D+01 -0.1193324198D+00  0.6899906659D-01
      0.1881288540D+01 -0.1608541517D+00  0.3164239610D+00
      0.5442492580D+00  0.1143456438D+01  0.7443082909D+00
 SP   1 1.00       0.000000000000
      0.1687144782D+00  0.1000000000D+01  0.1000000000D+01
 D   1 1.00       0.000000000000
      0.8000000000D+00  0.1000000000D+01
 ****
      6 0
 S   6 1.00       0.000000000000
      0.3047524880D+04  0.1834737132D-02
      0.4573695180D+03  0.1403732281D-01
      0.1039486850D+03  0.6884262226D-01
      0.2921015530D+02  0.2321844432D+00
      0.9286662960D+01  0.4679413484D+00
      0.3163926960D+01  0.3623119853D+00
 SP   3 1.00       0.000000000000
      0.7868272350D+01 -0.1193324198D+00  0.6899906659D-01
      0.1881288540D+01 -0.1608541517D+00  0.3164239610D+00
      0.5442492580D+00  0.1143456438D+01  0.7443082909D+00
 SP   1 1.00       0.000000000000
      0.1687144782D+00  0.1000000000D+01  0.1000000000D+01
 D   1 1.00       0.000000000000
      0.8000000000D+00  0.1000000000D+01
 ****
      7 0
 S   3 1.00       0.000000000000
      0.1873113696D+02  0.3349460434D-01
      0.2825394365D+01  0.2347269535D+00
      0.6401216923D+00  0.8137573261D+00
 S   1 1.00       0.000000000000
      0.1612777588D+00  0.1000000000D+01
 P   1 1.00       0.000000000000
      0.1100000000D+01  0.1000000000D+01
 ****
      8 0
 S   3 1.00       0.000000000000
      0.1873113696D+02  0.3349460434D-01
      0.2825394365D+01  0.2347269535D+00
      0.6401216923D+00  0.8137573261D+00
 S   1 1.00       0.000000000000
      0.1612777588D+00  0.1000000000D+01
 P   1 1.00       0.000000000000
      0.1100000000D+01  0.1000000000D+01
 ****
      9 0
 S   3 1.00       0.000000000000
      0.1873113696D+02  0.3349460434D-01
      0.2825394365D+01  0.2347269535D+00
      0.6401216923D+00  0.8137573261D+00
 S   1 1.00       0.000000000000
      0.1612777588D+00  0.1000000000D+01
 P   1 1.00       0.000000000000
      0.1100000000D+01  0.1000000000D+01
 ****
     10 0
 S   3 1.00       0.000000000000
      0.1873113696D+02  0.3349460434D-01
      0.2825394365D+01  0.2347269535D+00
      0.6401216923D+00  0.8137573261D+00
 S   1 1.00       0.000000000000
      0.1612777588D+00  0.1000000000D+01
 P   1 1.00       0.000000000000
      0.1100000000D+01  0.1000000000D+01
 ****
     11 0
 S   3 1.00       0.000000000000
      0.1873113696D+02  0.3349460434D-01
      0.2825394365D+01  0.2347269535D+00
      0.6401216923D+00  0.8137573261D+00
 S   1 1.00       0.000000000000
      0.1612777588D+00  0.1000000000D+01
 P   1 1.00       0.000000000000
      0.1100000000D+01  0.1000000000D+01
 ****
     12 0
 S   3 1.00       0.000000000000
      0.1873113696D+02  0.3349460434D-01
      0.2825394365D+01  0.2347269535D+00
      0.6401216923D+00  0.8137573261D+00
 S   1 1.00       0.000000000000
      0.1612777588D+00  0.1000000000D+01
 P   1 1.00       0.000000000000
      0.1100000000D+01  0.1000000000D+01
 ****

 There are   120 symmetry adapted cartesian basis functions of A   symmetry.
 There are   120 symmetry adapted basis functions of A   symmetry.
   120 basis functions,   210 primitive gaussians,   120 cartesian basis functions
    21 alpha electrons       21 beta electrons
       nuclear repulsion energy       203.7650048493 Hartrees.
 IExCor= 1009 DFT=T Ex+Corr=PBE1PBE ExCW=0 ScaHFX=  0.250000
 ScaDFX=  0.750000  0.750000  1.000000  1.000000 ScalE2=  1.000000  1.000000
 IRadAn=      5 IRanWt=     -1 IRanGd=            0 ICorTp=0 IEmpDi=141
 NAtoms=   12 NActive=   12 NUniq=   12 SFac= 1.00D+00 NAtFMM=   60 NAOKFM=F Big=F
 Integral buffers will be    131072 words long.
 Regular integral format.
 Two-electron integral symmetry is turned on.
 R6Disp:  Grimme-D3(BJ) Dispersion energy=       -0.0093674575 Hartrees.
 Nuclear repulsion after empirical dispersion term =      203.7556373918 Hartrees.
 Leave Link  301 at Mon Jul 17 22:00:37 2023, MaxMem=   268435456 cpu:               0.1 elap:               0.0
 (Enter /gpfs1/apps/software/Gaussian16/AVX/g16/l302.exe)
 NPDir=0 NMtPBC=     1 NCelOv=     1 NCel=       1 NClECP=     1 NCelD=      1
         NCelK=      1 NCelE2=     1 NClLst=     1 CellRange=     0.0.
 One-electron integrals computed using PRISM.
 One-electron integral symmetry used in STVInt
 NBasis=   120 RedAO= T EigKep=  5.04D-04  NBF=   120
 NBsUse=   120 1.00D-06 EigRej= -1.00D+00 NBFU=   120
 Precomputing XC quadrature grid using
 IXCGrd= 4 IRadAn=           5 IRanWt=          -1 IRanGd=           0 AccXCQ= 0.00D+00.
 Generated NRdTot=       0 NPtTot=           0 NUsed=           0 NTot=          32
 NSgBfM=   120   120   120   120   120 MxSgAt=    12 MxSgA2=    12.
 Leave Link  302 at Mon Jul 17 22:00:37 2023, MaxMem=   268435456 cpu:               0.4 elap:               0.2
 (Enter /gpfs1/apps/software/Gaussian16/AVX/g16/l303.exe)
 DipDrv:  MaxL=1.
 Leave Link  303 at Mon Jul 17 22:00:37 2023, MaxMem=   268435456 cpu:               0.1 elap:               0.0
 (Enter /gpfs1/apps/software/Gaussian16/AVX/g16/l308.exe)
 Leave Link  308 at Mon Jul 17 22:00:43 2023, MaxMem=   268435456 cpu:               0.3 elap:               0.3
 (Enter /gpfs1/apps/software/Gaussian16/AVX/g16/l401.exe)
 ExpMin= 1.61D-01 ExpMax= 3.05D+03 ExpMxC= 4.57D+02 IAcc=3 IRadAn=         5 AccDes= 0.00D+00
 Harris functional with IExCor= 1009 and IRadAn=       5 diagonalized for initial guess.
 HarFok:  IExCor= 1009 AccDes= 0.00D+00 IRadAn=         5 IDoV= 1 UseB2=F ITyADJ=14
 ICtDFT=  3500011 ScaDFX=  1.000000  1.000000  1.000000  1.000000
 FoFCou: FMM=F IPFlag=           0 FMFlag=      100000 FMFlg1=           0
         NFxFlg=           0 DoJE=T BraDBF=F KetDBF=T FulRan=T
         wScrn=  0.000000 ICntrl=       500 IOpCl=  0 I1Cent=   200000004 NGrid=           0
         NMat0=    1 NMatS0=      1 NMatT0=    0 NMatD0=    1 NMtDS0=    0 NMtDT0=    0
 Petite list used in FoFCou.
 Harris En= -232.081829273075    
 JPrj=0 DoOrth=F DoCkMO=F.
 Leave Link  401 at Mon Jul 17 22:00:45 2023, MaxMem=   268435456 cpu:               3.1 elap:               1.6
 (Enter /gpfs1/apps/software/Gaussian16/AVX/g16/l502.exe)
 Keep R1 ints in memory in canonical form, NReq=28253466.
 FoFCou: FMM=F IPFlag=           0 FMFlag=           0 FMFlg1=           0
         NFxFlg=           0 DoJE=F BraDBF=F KetDBF=F FulRan=T
         wScrn=  0.000000 ICntrl=       600 IOpCl=  0 I1Cent=           0 NGrid=           0
         NMat0=    1 NMatS0=   7260 NMatT0=    0 NMatD0=    1 NMtDS0=    0 NMtDT0=    0
 Symmetry not used in FoFCou.
 Two-electron integral symmetry not used.
 Closed shell SCF:
 Using DIIS extrapolation, IDIIS=  1040.
 NGot=   268435456 LenX=   242046834 LenY=   242031993
 Requested convergence on RMS density matrix=1.00D-08 within 128 cycles.
 Requested convergence on MAX density matrix=1.00D-06.
 Requested convergence on             energy=1.00D-06.
 No special actions if energy rises.
 Integral accuracy reduced to 1.0D-05 until final iterations.

 Cycle   1  Pass 0  IDiag  1:
 E= -231.839597225539    
 DIIS: error= 4.37D-02 at cycle   1 NSaved=   1.
 NSaved= 1 IEnMin= 1 EnMin= -231.839597225539     IErMin= 1 ErrMin= 4.37D-02
 ErrMax= 4.37D-02  0.00D+00 EMaxC= 1.00D-01 BMatC= 1.29D-01 BMatP= 1.29D-01
 IDIUse=3 WtCom= 5.63D-01 WtEn= 4.37D-01
 Coeff-Com:  0.100D+01
 Coeff-En:   0.100D+01
 Coeff:      0.100D+01
 Gap=     0.266 Goal=   None    Shift=    0.000
 GapD=    0.266 DampG=1.000 DampE=0.500 DampFc=0.5000 IDamp=-1.
 Damping current iteration by 5.00D-01
 RMSDP=6.20D-03 MaxDP=9.04D-02              OVMax= 1.47D-01

 Cycle   2  Pass 0  IDiag  1:
 E= -231.910182253861     Delta-E=       -0.070585028322 Rises=F Damp=T
 DIIS: error= 9.82D-03 at cycle   2 NSaved=   2.
 NSaved= 2 IEnMin= 2 EnMin= -231.910182253861     IErMin= 2 ErrMin= 9.82D-03
 ErrMax= 9.82D-03  0.00D+00 EMaxC= 1.00D-01 BMatC= 7.69D-03 BMatP= 1.29D-01
 IDIUse=3 WtCom= 9.02D-01 WtEn= 9.82D-02
 Coeff-Com: -0.382D-01 0.104D+01
 Coeff-En:   0.000D+00 0.100D+01
 Coeff:     -0.345D-01 0.103D+01
 Gap=     0.269 Goal=   None    Shift=    0.000
 RMSDP=1.32D-03 MaxDP=1.22D-02 DE=-7.06D-02 OVMax= 8.15D-02

 Cycle   3  Pass 0  IDiag  1:
 E= -231.981833677212     Delta-E=       -0.071651423352 Rises=F Damp=F
 DIIS: error= 3.52D-03 at cycle   3 NSaved=   3.
 NSaved= 3 IEnMin= 3 EnMin= -231.981833677212     IErMin= 3 ErrMin= 3.52D-03
 ErrMax= 3.52D-03  0.00D+00 EMaxC= 1.00D-01 BMatC= 9.17D-04 BMatP= 7.69D-03
 IDIUse=3 WtCom= 9.65D-01 WtEn= 3.52D-02
 Coeff-Com: -0.505D-01 0.225D+00 0.825D+00
 Coeff-En:   0.000D+00 0.000D+00 0.100D+01
 Coeff:     -0.487D-01 0.217D+00 0.832D+00
 Gap=     0.266 Goal=   None    Shift=    0.000
 RMSDP=3.21D-04 MaxDP=3.15D-03 DE=-7.17D-02 OVMax= 7.05D-03

 Cycle   4  Pass 0  IDiag  1:
 E= -231.982629806264     Delta-E=       -0.000796129052 Rises=F Damp=F
 DIIS: error= 5.23D-04 at cycle   4 NSaved=   4.
 NSaved= 4 IEnMin= 4 EnMin= -231.982629806264     IErMin= 4 ErrMin= 5.23D-04
 ErrMax= 5.23D-04  0.00D+00 EMaxC= 1.00D-01 BMatC= 2.89D-05 BMatP= 9.17D-04
 IDIUse=3 WtCom= 9.95D-01 WtEn= 5.23D-03
 Coeff-Com: -0.105D-01 0.219D-01 0.193D+00 0.795D+00
 Coeff-En:   0.000D+00 0.000D+00 0.000D+00 0.100D+01
 Coeff:     -0.104D-01 0.218D-01 0.192D+00 0.797D+00
 Gap=     0.266 Goal=   None    Shift=    0.000
 RMSDP=4.46D-05 MaxDP=4.14D-04 DE=-7.96D-04 OVMax= 9.22D-04

 Cycle   5  Pass 0  IDiag  1:
 E= -231.982654898006     Delta-E=       -0.000025091741 Rises=F Damp=F
 DIIS: error= 1.31D-05 at cycle   5 NSaved=   5.
 NSaved= 5 IEnMin= 5 EnMin= -231.982654898006     IErMin= 5 ErrMin= 1.31D-05
 ErrMax= 1.31D-05  0.00D+00 EMaxC= 1.00D-01 BMatC= 1.92D-08 BMatP= 2.89D-05
 IDIUse=1 WtCom= 1.00D+00 WtEn= 0.00D+00
 Coeff-Com: -0.211D-03-0.865D-04 0.205D-02 0.265D-01 0.972D+00
 Coeff:     -0.211D-03-0.865D-04 0.205D-02 0.265D-01 0.972D+00
 Gap=     0.266 Goal=   None    Shift=    0.000
 RMSDP=2.29D-06 MaxDP=2.10D-05 DE=-2.51D-05 OVMax= 2.79D-05

 Initial convergence to 1.0D-05 achieved.  Increase integral accuracy.
 Cycle   6  Pass 1  IDiag  1:
 E= -231.982656801182     Delta-E=       -0.000001903177 Rises=F Damp=F
 DIIS: error= 7.43D-06 at cycle   1 NSaved=   1.
 NSaved= 1 IEnMin= 1 EnMin= -231.982656801182     IErMin= 1 ErrMin= 7.43D-06
 ErrMax= 7.43D-06  0.00D+00 EMaxC= 1.00D-01 BMatC= 8.52D-10 BMatP= 8.52D-10
 IDIUse=1 WtCom= 1.00D+00 WtEn= 0.00D+00
 Coeff-Com:  0.100D+01
 Coeff:      0.100D+01
 Gap=     0.266 Goal=   None    Shift=    0.000
 RMSDP=2.29D-06 MaxDP=2.10D-05 DE=-1.90D-06 OVMax= 1.98D-05

 Cycle   7  Pass 1  IDiag  1:
 E= -231.982656802169     Delta-E=       -0.000000000986 Rises=F Damp=F
 DIIS: error= 1.44D-06 at cycle   2 NSaved=   2.
 NSaved= 2 IEnMin= 2 EnMin= -231.982656802169     IErMin= 2 ErrMin= 1.44D-06
 ErrMax= 1.44D-06  0.00D+00 EMaxC= 1.00D-01 BMatC= 2.85D-10 BMatP= 8.52D-10
 IDIUse=1 WtCom= 1.00D+00 WtEn= 0.00D+00
 Coeff-Com:  0.317D+00 0.683D+00
 Coeff:      0.317D+00 0.683D+00
 Gap=     0.266 Goal=   None    Shift=    0.000
 RMSDP=2.13D-07 MaxDP=4.97D-06 DE=-9.86D-10 OVMax= 6.42D-06

 Cycle   8  Pass 1  IDiag  1:
 E= -231.982656802373     Delta-E=       -0.000000000205 Rises=F Damp=F
 DIIS: error= 7.13D-07 at cycle   3 NSaved=   3.
 NSaved= 3 IEnMin= 3 EnMin= -231.982656802373     IErMin= 3 ErrMin= 7.13D-07
 ErrMax= 7.13D-07  0.00D+00 EMaxC= 1.00D-01 BMatC= 8.42D-11 BMatP= 2.85D-10
 IDIUse=1 WtCom= 1.00D+00 WtEn= 0.00D+00
 Coeff-Com: -0.154D-01 0.345D+00 0.671D+00
 Coeff:     -0.154D-01 0.345D+00 0.671D+00
 Gap=     0.266 Goal=   None    Shift=    0.000
 RMSDP=8.45D-08 MaxDP=2.22D-06 DE=-2.05D-10 OVMax= 4.11D-06

 Cycle   9  Pass 1  IDiag  1:
 E= -231.982656802451     Delta-E=       -0.000000000078 Rises=F Damp=F
 DIIS: error= 3.12D-07 at cycle   4 NSaved=   4.
 NSaved= 4 IEnMin= 4 EnMin= -231.982656802451     IErMin= 4 ErrMin= 3.12D-07
 ErrMax= 3.12D-07  0.00D+00 EMaxC= 1.00D-01 BMatC= 8.48D-12 BMatP= 8.42D-11
 IDIUse=1 WtCom= 1.00D+00 WtEn= 0.00D+00
 Coeff-Com: -0.216D-01 0.181D+00 0.401D+00 0.440D+00
 Coeff:     -0.216D-01 0.181D+00 0.401D+00 0.440D+00
 Gap=     0.266 Goal=   None    Shift=    0.000
 RMSDP=2.71D-08 MaxDP=6.04D-07 DE=-7.76D-11 OVMax= 1.33D-06

 Cycle  10  Pass 1  IDiag  1:
 E= -231.982656802460     Delta-E=       -0.000000000010 Rises=F Damp=F
 DIIS: error= 4.34D-08 at cycle   5 NSaved=   5.
 NSaved= 5 IEnMin= 5 EnMin= -231.982656802460     IErMin= 5 ErrMin= 4.34D-08
 ErrMax= 4.34D-08  0.00D+00 EMaxC= 1.00D-01 BMatC= 1.69D-13 BMatP= 8.48D-12
 IDIUse=1 WtCom= 1.00D+00 WtEn= 0.00D+00
 Coeff-Com: -0.909D-02 0.657D-01 0.151D+00 0.204D+00 0.589D+00
 Coeff:     -0.909D-02 0.657D-01 0.151D+00 0.204D+00 0.589D+00
 Gap=     0.266 Goal=   None    Shift=    0.000
 RMSDP=4.24D-09 MaxDP=1.37D-07 DE=-9.66D-12 OVMax= 2.38D-07

 SCF Done:  E(RPBE1PBE) =  -231.982656802     A.U. after   10 cycles
            NFock= 10  Conv=0.42D-08     -V/T= 2.0091
 KE= 2.298996654261D+02 PE=-9.447494480144D+02 EE= 2.791114883941D+02
 Leave Link  502 at Mon Jul 17 22:00:59 2023, MaxMem=   268435456 cpu:              28.6 elap:              14.5
 (Enter /gpfs1/apps/software/Gaussian16/AVX/g16/l801.exe)
 DoSCS=F DFT=T ScalE2(SS,OS)=  1.000000  1.000000
 ExpMin= 1.61D-01 ExpMax= 3.05D+03 ExpMxC= 4.57D+02 IAcc=3 IRadAn=         5 AccDes= 0.00D+00
 HarFok:  IExCor=  205 AccDes= 0.00D+00 IRadAn=         5 IDoV=-2 UseB2=F ITyADJ=14
 ICtDFT= 12500011 ScaDFX=  1.000000  1.000000  1.000000  1.000000
 Largest valence mixing into a core orbital is  6.83D-05
 Largest core mixing into a valence orbital is  1.46D-05
 Range of M.O.s used for correlation:     7   120
 NBasis=   120 NAE=    21 NBE=    21 NFC=     6 NFV=     0
 NROrb=    114 NOA=    15 NOB=    15 NVA=    99 NVB=    99

 **** Warning!!: The largest alpha MO coefficient is  0.10932864D+02

 Leave Link  801 at Mon Jul 17 22:01:00 2023, MaxMem=   268435456 cpu:               1.1 elap:               0.9
 (Enter /gpfs1/apps/software/Gaussian16/AVX/g16/l914.exe)
 RHF ground state
 Keep R1, R2, and R3 ints in memory in canonical form, NReq=95582984.
 FoFCou: FMM=F IPFlag=           0 FMFlag=           0 FMFlg1=           0
         NFxFlg=           0 DoJE=F BraDBF=F KetDBF=F FulRan=T
         wScrn=  0.000000 ICntrl=       600 IOpCl=  0 I1Cent=           0 NGrid=           0
         NMat0=    1 NMatS0=   7260 NMatT0=    0 NMatD0=    1 NMtDS0=    0 NMtDT0=    0
 Symmetry not used in FoFCou.
 Two-electron integral symmetry not used.
 MDV=   268435456 DFT=T DoStab=F Mixed=T DoRPA=F DoScal=F NonHer=F
 Making orbital integer symmetry assigments:
 Orbital symmetries:
       Occupied  (A) (A) (A) (A) (A) (A) (A) (A) (A) (A) (A) (A)
                 (A) (A) (A) (A) (A) (A) (A) (A) (A)
       Virtual   (A) (A) (A) (A) (A) (A) (A) (A) (A) (A) (A) (A)
                 (A) (A) (A) (A) (A) (A) (A) (A) (A) (A) (A) (A)
                 (A) (A) (A) (A) (A) (A) (A) (A) (A) (A) (A) (A)
                 (A) (A) (A) (A) (A) (A) (A) (A) (A) (A) (A) (A)
                 (A) (A) (A) (A) (A) (A) (A) (A) (A) (A) (A) (A)
                 (A) (A) (A) (A) (A) (A) (A) (A) (A) (A) (A) (A)
                 (A) (A) (A) (A) (A) (A) (A) (A) (A) (A) (A) (A)
                 (A) (A) (A) (A) (A) (A) (A) (A) (A) (A) (A) (A)
                 (A) (A) (A)
    80 initial guesses have been made.
 Convergence on wavefunction:    0.000001000000000
 Davidson Disk Diagonalization:  ConvIn= 1.00D-06 SkipCon=T Conv= 1.00D-06.
 Max sub-space:  2000 roots to seek:    80 dimension of matrix:         2970
 Iteration     1 Dimension    80 NMult     0 NNew     80
 CISAX will form    80 AO SS matrices at one time.
 NMat=    80 NSing=    40 JSym2X= 0.
 New state      1 was old state      2
 New state      2 was old state      4
 New state      3 was old state      8
 New state      4 was old state      6
 New state      5 was old state      3
 New state      6 was old state      1
 New state      7 was old state     12
 New state      8 was old state     22
 New state      9 was old state     24
 New state     11 was old state     14
 New state     12 was old state     16
 New state     13 was old state      9
 New state     14 was old state     11
 New state     16 was old state     13
 New state     17 was old state     20
 New state     20 was old state     17
 New state     21 was old state     28
 New state     22 was old state     21
 New state     24 was old state     40
 New state     25 was old state     42
 New state     26 was old state      7
 New state     27 was old state      5
 New state     28 was old state     34
 New state     29 was old state     36
 New state     30 was old state     32
 New state     31 was old state     30
 New state     32 was old state     27
 New state     33 was old state     38
 New state     34 was old state     29
 New state     35 was old state     25
 New state     36 was old state     39
 New state     37 was old state     26
 New state     38 was old state     31
 New state     39 was old state     41
 New state     40 was old state     44
 Excitation Energies [eV] at current iteration:
 Root      1 :     4.433022303564303
 Root      2 :     4.919543275763406
 Root      3 :     4.919569458015104
 Root      4 :     5.334854369528339
 Root      5 :     5.732030413022505
 Root      6 :     7.370152118522064
 Root      7 :     7.678454711447054
 Root      8 :     7.705514562776947
 Root      9 :     7.705685202974496
 Root     10 :     7.746061247679249
 Root     11 :     7.746065252316471
 Root     12 :     7.802068295419607
 Root     13 :     7.953693313536066
 Root     14 :     8.056625704406169
 Root     15 :     8.058738893633306
 Root     16 :     8.058756790906665
 Root     17 :     8.254148765015703
 Root     18 :     8.254814218005187
 Root     19 :     8.427449104281489
 Root     20 :     8.429909311495958
 Root     21 :     9.502588517057346
 Root     22 :     9.599648856054721
 Root     23 :     9.599811362839171
 Root     24 :     9.683847898717490
 Root     25 :     9.719869560773159
 Root     26 :     9.746311402817534
 Root     27 :     9.746462599380589
 Root     28 :     9.843275605357395
 Root     29 :     9.843378534361673
 Root     30 :     9.844745494212672
 Root     31 :     9.844765976330482
 Root     32 :     9.851745729261305
 Root     33 :     9.896265568572533
 Root     34 :     9.977379906593077
 Root     35 :     9.977383032621891
 Root     36 :    10.047123663167396
 Root     37 :    10.077581587318514
 Root     38 :    10.077803012500903
 Root     39 :    10.140237206007686
 Root     40 :    10.173753467394301
 Root     41 :    10.191631861680456
 Root     42 :    10.247785668556741
 Root     43 :    10.318700109799179
 Root     44 :    10.367447341969857
 Root     45 :    10.605121355336607
 Root     46 :    10.605702247303162
 Root     47 :    10.657779934585557
 Root     48 :    10.719105683750168
 Root     49 :    10.739156218719412
 Root     50 :    10.815977007847721
 Root     51 :    10.823943297946414
 Root     52 :    11.022180632642833
 Root     53 :    11.051385385870319
 Root     54 :    11.053869053569972
 Root     55 :    11.056470504146704
 Root     56 :    11.133108750886624
 Root     57 :    11.133649121776983
 Root     58 :    11.141312493312608
 Root     59 :    11.196551619580465
 Root     60 :    11.247053092517199
 Root     61 :    11.247144388583855
 Root     62 :    11.259254819380825
 Root     63 :    11.453776125946746
 Root     64 :    11.453863084261965
 Root     65 :    11.614799890454819
 Root     66 :    11.704633862922879
 Root     67 :    11.827905824355245
 Root     68 :    11.854127443887997
 Root     69 :    11.997235249102635
 Root     70 :    12.188440913663866
 Root     71 :    12.188463181598083
 Root     72 :    12.382574263967941
 Root     73 :    12.440398764832693
 Root     74 :    12.440498314339663
 Root     75 :    12.532499108427265
 Root     76 :    12.543521141897820
 Root     77 :    12.642349628548514
 Root     78 :    12.727169812988887
 Root     79 :    12.727183843017890
 Root     80 :    12.778601287260363
 Iteration     2 Dimension   160 NMult    80 NNew     80
 CISAX will form    80 AO SS matrices at one time.
 NMat=    80 NSing=    40 JSym2X= 0.
 Root      1 not converged, maximum delta is    0.106285141403166
 Root      2 not converged, maximum delta is    0.010993611970191
 Root      3 not converged, maximum delta is    0.010997354248410
 Root      4 not converged, maximum delta is    0.010777438415224
 Root      5 not converged, maximum delta is    0.014202953429095
 Root      6 not converged, maximum delta is    0.047184748487379
 Root      7 not converged, maximum delta is    0.052595839853281
 Root      8 not converged, maximum delta is    0.019885544534654
 Root      9 not converged, maximum delta is    0.019882716233474
 Root     10 not converged, maximum delta is    0.187680352356699
 Root     11 not converged, maximum delta is    0.187184940784057
 Root     12 not converged, maximum delta is    0.068969079113793
 Root     13 not converged, maximum delta is    0.047342639661772
 New state     14 was old state     16
 Root     14 not converged, maximum delta is    0.132783930405383
 Root     15 not converged, maximum delta is    0.123924586312569
 New state     16 was old state     14
 Root     16 not converged, maximum delta is    0.057447113779913
 New state     17 was old state     26
 Root     17 not converged, maximum delta is    0.061661217673640
 New state     18 was old state     27
 Root     18 not converged, maximum delta is    0.061659558382740
 New state     19 was old state     18
 Root     19 not converged, maximum delta is    0.264728801362827
 New state     20 was old state     17
 Root     20 not converged, maximum delta is    0.264629423881864
 New state     21 was old state     19
 Root     21 not converged, maximum delta is    0.387011126356784
 New state     22 was old state     20
 Root     22 not converged, maximum delta is    0.387343573799356
 New state     23 was old state     21
 Root     23 not converged, maximum delta is    0.016239829063751
 New state     24 was old state     22
 Root     24 not converged, maximum delta is    0.113798518922880
 New state     25 was old state     23
 Root     25 not converged, maximum delta is    0.113790307231331
 New state     26 was old state     24
 Root     26 not converged, maximum delta is    0.075659806104393
 New state     27 was old state     25
 Root     27 not converged, maximum delta is    0.017449856452755
 New state     28 was old state     33
 Root     28 not converged, maximum delta is    0.191830497216051
 New state     29 was old state     30
 Root     29 not converged, maximum delta is    0.157926277361036
 New state     30 was old state     31
 Root     30 not converged, maximum delta is    0.162544944787188
 New state     31 was old state     32
 Root     31 not converged, maximum delta is    0.018043126369754
 New state     32 was old state     28
 Root     32 not converged, maximum delta is    0.140773656031926
 New state     33 was old state     29
 Root     33 not converged, maximum delta is    0.148774339339394
 Root     34 not converged, maximum delta is    0.176496127611180
 Root     35 not converged, maximum delta is    0.176525521471160
 Root     36 not converged, maximum delta is    0.045623932240068
 Root     37 not converged, maximum delta is    0.011264875058478
 Root     38 not converged, maximum delta is    0.010402920436622
 Root     39 not converged, maximum delta is    0.022235912900801
 New state     40 was old state     41
 Root     40 not converged, maximum delta is    0.102135865965614
 Excitation Energies [eV] at current iteration:
 Root      1 :     4.158753413518719   Change is   -0.274268890045584
 Root      2 :     4.883845777514342   Change is   -0.035697498249064
 Root      3 :     4.883873288124429   Change is   -0.035696169890675
 Root      4 :     5.314758972305620   Change is   -0.020095397222719
 Root      5 :     5.680109965069760   Change is   -0.051920447952745
 Root      6 :     6.680437194407076   Change is   -0.689714924114989
 Root      7 :     7.603928725397171   Change is   -0.074525986049882
 Root      8 :     7.620671576999562   Change is   -0.084842985777385
 Root      9 :     7.620841092355688   Change is   -0.084844110618808
 Root     10 :     7.652163472571211   Change is   -0.093897775108038
 Root     11 :     7.652169764453894   Change is   -0.093895487862577
 Root     12 :     7.675888652065395   Change is   -0.126179643354212
 Root     13 :     7.898954433065909   Change is   -0.054738880470156
 Root     14 :     8.010228307353522   Change is   -0.048528483553144
 Root     15 :     8.010234757886337   Change is   -0.048504135746969
 Root     16 :     8.017535317611971   Change is   -0.039090386794198
 Root     17 :     8.140561926685745   Change is   -1.605749476131789
 Root     18 :     8.140654559034227   Change is   -1.605808040346363
 Root     19 :     8.194950018766662   Change is   -0.059864199238526
 Root     20 :     8.195018485383734   Change is   -0.059130279631970
 Root     21 :     8.389929369312577   Change is   -0.037519734968912
 Root     22 :     8.390014316900185   Change is   -0.039894994595773
 Root     23 :     9.455819456005869   Change is   -0.046769061051475
 Root     24 :     9.457658402145457   Change is   -0.141990453909264
 Root     25 :     9.457848097471528   Change is   -0.141963265367642
 Root     26 :     9.540385381693831   Change is   -0.143462517023659
 Root     27 :     9.662738553994807   Change is   -0.057131006778352
 Root     28 :     9.664342684702955   Change is   -0.231922883869577
 Root     29 :     9.783317383152614   Change is   -0.061428111060057
 Root     30 :     9.783344548296594   Change is   -0.061421428033888
 Root     31 :     9.809043646984804   Change is   -0.042702082276501
 Root     32 :     9.817138467528558   Change is   -0.026137137828836
 Root     33 :     9.817244834943397   Change is   -0.026133699418276
 Root     34 :     9.943098322876278   Change is   -0.034281583716801
 Root     35 :     9.943102100517702   Change is   -0.034280932104187
 Root     36 :     9.991051508397353   Change is   -0.056072154770041
 Root     37 :    10.070631197653643   Change is   -0.006950389664870
 Root     38 :    10.071278379818542   Change is   -0.006524632682360
 Root     39 :    10.112517548023215   Change is   -0.027719657984472
 Root     40 :    10.114420449301633   Change is   -0.077211412378823
 Root     41 :    10.149657452492493   Change is   -0.024096014901808
 Root     42 :    10.228826906327077   Change is   -0.089873203472101
 Root     43 :    10.229473391055462   Change is   -0.137973950914394
 Root     44 :    10.239471809028533   Change is   -0.008313859528209
 Root     45 :    10.331702433009575   Change is   -0.273418922327031
 Root     46 :    10.332242276111153   Change is   -0.273459971192011
 Root     47 :    10.480518519674675   Change is   -0.177261414910882
 Root     48 :    10.659874309273258   Change is   -0.059231374476912
 Root     49 :    10.661591188065263   Change is   -0.077565030654149
 Root     50 :    10.702726053122269   Change is   -0.113250954725452
 Root     51 :    10.702905096761503   Change is   -0.121038201184912
 Root     52 :    10.977645065889943   Change is   -0.155463684996681
 Root     53 :    10.977883695290780   Change is   -0.155765426486203
 Root     54 :    10.987668901852876   Change is   -0.034511730789958
 Root     55 :    11.003520095230066   Change is   -0.047865290640252
 Root     56 :    11.003535243660282   Change is   -0.050333809909690
 Root     57 :    11.032914605776867   Change is   -0.023555898369837
 Root     58 :    11.079833953352168   Change is   -0.061478539960439
 Root     59 :    11.142854884597435   Change is   -0.104198207919764
 Root     60 :    11.142952058819981   Change is   -0.104192329763875
 Root     61 :    11.153961454943971   Change is   -0.042590164636494
 Root     62 :    11.155063681512576   Change is   -0.104191137868249
 Root     63 :    11.206659025569092   Change is   -1.233839288770572
 Root     64 :    11.206890491494693   Change is   -1.233508273337999
 Root     65 :    11.405344233153263   Change is   -0.591891015949372
 Root     66 :    11.413736616055425   Change is   -0.040039509891321
 Root     67 :    11.413823365049964   Change is   -0.040039719211999
 Root     68 :    11.556902625556129   Change is   -0.631538288107739
 Root     69 :    11.556948158277470   Change is   -0.631515023320614
 Root     70 :    11.598201414261386   Change is   -0.016598476193433
 Root     71 :    11.682006327131132   Change is   -0.022627535791746
 Root     72 :    11.703011847348636   Change is   -0.124893977006610
 Root     73 :    11.711517281902324   Change is   -0.142610161985672
 Root     74 :    12.176990874906265   Change is   -0.205583389061676
 Root     75 :    12.454814730823568   Change is   -0.077684377603696
 Root     76 :    12.514232695500468   Change is   -0.029288446397352
 Root     77 :    12.604843598208934   Change is   -0.173757689051430
 Root     78 :    12.621753089399185   Change is   -0.020596539149330
 Root     79 :    12.627614884708425   Change is   -0.099554928280462
 Root     80 :    12.627655071266807   Change is   -0.099528771751083
 Iteration     3 Dimension   180 NMult   160 NNew     20
 CISAX will form    20 AO SS matrices at one time.
 NMat=    20 NSing=    10 JSym2X= 0.
 Root      1 not converged, maximum delta is    0.001307748291247
 Root      2 not converged, maximum delta is    0.000814601302576
 Root      3 not converged, maximum delta is    0.000814608343798
 Root      4 not converged, maximum delta is    0.000359748950285
 Root      5 not converged, maximum delta is    0.001157337492217
 Root      6 not converged, maximum delta is    0.004285924651951
 Root      7 not converged, maximum delta is    0.002727245184222
 Root      8 not converged, maximum delta is    0.001732311566538
 Root      9 not converged, maximum delta is    0.001732093473120
 Root     10 not converged, maximum delta is    0.006898426751266
 Root     11 not converged, maximum delta is    0.006898498070785
 Root     12 not converged, maximum delta is    0.001692384551276
 Root     13 not converged, maximum delta is    0.001121886006235
 Root     14 not converged, maximum delta is    0.003797771800697
 Root     15 not converged, maximum delta is    0.003798675034365
 Root     16 not converged, maximum delta is    0.003505297027862
 Root     17 not converged, maximum delta is    0.006104812891713
 Root     18 not converged, maximum delta is    0.006105607805737
 New state     19 was old state     21
 Root     19 not converged, maximum delta is    0.165451053977134
 New state     20 was old state     22
 Root     20 not converged, maximum delta is    0.165460008773631
 Excitation Energies [eV] at current iteration:
 Root      1 :     4.157974328238359   Change is   -0.000779085280361
 Root      2 :     4.883595395632160   Change is   -0.000250381882181
 Root      3 :     4.883622904123953   Change is   -0.000250384000477
 Root      4 :     5.314728687788405   Change is   -0.000030284517216
 Root      5 :     5.679837666763684   Change is   -0.000272298306076
 Root      6 :     6.678457482427715   Change is   -0.001979711979361
 Root      7 :     7.603434546960843   Change is   -0.000494178436329
 Root      8 :     7.619636687424541   Change is   -0.001034889575021
 Root      9 :     7.619806494967898   Change is   -0.001034597387789
 Root     10 :     7.651039295908081   Change is   -0.001124176663130
 Root     11 :     7.651045519024411   Change is   -0.001124245429483
 Root     12 :     7.675291282598486   Change is   -0.000597369466909
 Root     13 :     7.898741728702298   Change is   -0.000212704363612
 Root     14 :     8.009325284887488   Change is   -0.000903022466032
 Root     15 :     8.009331728232826   Change is   -0.000903029653510
 Root     16 :     8.016621689946248   Change is   -0.000913627665724
 Root     17 :     8.130634510539542   Change is   -0.009927416146203
 Root     18 :     8.130726734219426   Change is   -0.009927824814800
 Root     19 :     8.389596318542402   Change is   -0.000333050770175
 Root     20 :     8.389687631111858   Change is   -0.000326685788327
 Iteration     4 Dimension   200 NMult   180 NNew     20
 CISAX will form    20 AO SS matrices at one time.
 NMat=    20 NSing=    10 JSym2X= 0.
 Root      1 not converged, maximum delta is    0.000162400120544
 Root      2 not converged, maximum delta is    0.000052750148303
 Root      3 not converged, maximum delta is    0.000052747446785
 Root      4 not converged, maximum delta is    0.000031043842827
 Root      5 not converged, maximum delta is    0.000021747871053
 Root      6 not converged, maximum delta is    0.000385458524355
 Root      7 not converged, maximum delta is    0.000097242849530
 Root      8 not converged, maximum delta is    0.000247892834896
 Root      9 not converged, maximum delta is    0.000247813582256
 Root     10 not converged, maximum delta is    0.000370212455150
 Root     11 not converged, maximum delta is    0.000370254890247
 Root     12 not converged, maximum delta is    0.000106730173914
 Root     13 not converged, maximum delta is    0.000053372491614
 Root     14 not converged, maximum delta is    0.000462519345031
 Root     15 not converged, maximum delta is    0.000458789827654
 Root     16 not converged, maximum delta is    0.000101947098354
 Root     17 not converged, maximum delta is    0.000427125878153
 Root     18 not converged, maximum delta is    0.000427170441347
 Root     19 not converged, maximum delta is    0.004055203310508
 Root     20 not converged, maximum delta is    0.004056933579460
 Excitation Energies [eV] at current iteration:
 Root      1 :     4.157967621094427   Change is   -0.000006707143932
 Root      2 :     4.883593797567832   Change is   -0.000001598064330
 Root      3 :     4.883621305992621   Change is   -0.000001598131331
 Root      4 :     5.314728414022398   Change is   -0.000000273766006
 Root      5 :     5.679837544969693   Change is   -0.000000121793991
 Root      6 :     6.678443918044356   Change is   -0.000013564383359
 Root      7 :     7.603431927878538   Change is   -0.000002619082304
 Root      8 :     7.619624832142666   Change is   -0.000011855281875
 Root      9 :     7.619794645338937   Change is   -0.000011849628962
 Root     10 :     7.651028365408122   Change is   -0.000010930499960
 Root     11 :     7.651034586522352   Change is   -0.000010932502059
 Root     12 :     7.675289493927494   Change is   -0.000001788670992
 Root     13 :     7.898741432780794   Change is   -0.000000295921504
 Root     14 :     8.009318818619070   Change is   -0.000006466268419
 Root     15 :     8.009325261743102   Change is   -0.000006466489724
 Root     16 :     8.016620059801918   Change is   -0.000001630144329
 Root     17 :     8.130588779259549   Change is   -0.000045731279993
 Root     18 :     8.130681003639372   Change is   -0.000045730580054
 Root     19 :     8.389592135498834   Change is   -0.000004183043568
 Root     20 :     8.389683886263114   Change is   -0.000003744848743
 Iteration     5 Dimension   220 NMult   200 NNew     20
 CISAX will form    20 AO SS matrices at one time.
 NMat=    20 NSing=    10 JSym2X= 0.
 Root      1 not converged, maximum delta is    0.000005658099174
 Root      2 not converged, maximum delta is    0.000005076735577
 Root      3 not converged, maximum delta is    0.000005076555918
 Root      4 not converged, maximum delta is    0.000001434066317
 Root      5 not converged, maximum delta is    0.000001572429417
 Root      6 not converged, maximum delta is    0.000012765619793
 Root      7 not converged, maximum delta is    0.000007981198541
 Root      8 not converged, maximum delta is    0.000011869002013
 Root      9 not converged, maximum delta is    0.000011869382092
 Root     10 not converged, maximum delta is    0.000022609160618
 Root     11 not converged, maximum delta is    0.000022546071352
 Root     12 not converged, maximum delta is    0.000004584810794
 Root     13 not converged, maximum delta is    0.000002483796993
 Root     14 not converged, maximum delta is    0.000265585931459
 Root     15 not converged, maximum delta is    0.000272431003363
 Root     16 not converged, maximum delta is    0.000006804433141
 Root     17 not converged, maximum delta is    0.000048141664306
 Root     18 not converged, maximum delta is    0.000048153294518
 Root     19 not converged, maximum delta is    0.000009514415626
 Root     20 not converged, maximum delta is    0.000009482861631
 Excitation Energies [eV] at current iteration:
 Root      1 :     4.157967600221644   Change is   -0.000000020872782
 Root      2 :     4.883593790644547   Change is   -0.000000006923285
 Root      3 :     4.883621299068877   Change is   -0.000000006923744
 Root      4 :     5.314728413200570   Change is   -0.000000000821828
 Root      5 :     5.679837544514678   Change is   -0.000000000455016
 Root      6 :     6.678443839943855   Change is   -0.000000078100500
 Root      7 :     7.603431919189039   Change is   -0.000000008689499
 Root      8 :     7.619624776286061   Change is   -0.000000055856605
 Root      9 :     7.619794589500313   Change is   -0.000000055838623
 Root     10 :     7.651028276547939   Change is   -0.000000088860182
 Root     11 :     7.651034497639046   Change is   -0.000000088883305
 Root     12 :     7.675289488240190   Change is   -0.000000005687304
 Root     13 :     7.898741432244855   Change is   -0.000000000535938
 Root     14 :     8.009318786454433   Change is   -0.000000032164638
 Root     15 :     8.009325212715785   Change is   -0.000000049027318
 Root     16 :     8.016620055795881   Change is   -0.000000004006036
 Root     17 :     8.130588364996534   Change is   -0.000000414263016
 Root     18 :     8.130680589391529   Change is   -0.000000414247844
 Root     19 :     8.389592126737766   Change is   -0.000000008761069
 Root     20 :     8.389683878551887   Change is   -0.000000007711228
 Iteration     6 Dimension   240 NMult   220 NNew     20
 CISAX will form    20 AO SS matrices at one time.
 NMat=    20 NSing=    10 JSym2X= 0.
 Root      1 has converged.
 Root      2 has converged.
 Root      3 has converged.
 Root      4 has converged.
 Root      5 has converged.
 Root      6 not converged, maximum delta is    0.000001001306813
 Root      7 has converged.
 Root      8 not converged, maximum delta is    0.000001296416491
 Root      9 not converged, maximum delta is    0.000001296594807
 Root     10 not converged, maximum delta is    0.000001181264851
 Root     11 not converged, maximum delta is    0.000001181578473
 Root     12 has converged.
 Root     13 has converged.
 Root     14 not converged, maximum delta is    0.000077356490353
 Root     15 not converged, maximum delta is    0.000079245451530
 Root     16 has converged.
 Root     17 not converged, maximum delta is    0.000005883929581
 Root     18 not converged, maximum delta is    0.000005882649416
 Root     19 has converged.
 Root     20 has converged.
 Excitation Energies [eV] at current iteration:
 Root      1 :     4.157967600171276   Change is   -0.000000000050367
 Root      2 :     4.883593790617406   Change is   -0.000000000027141
 Root      3 :     4.883621299041687   Change is   -0.000000000027190
 Root      4 :     5.314728413199345   Change is   -0.000000000001227
 Root      5 :     5.679837544514249   Change is   -0.000000000000429
 Root      6 :     6.678443839730610   Change is   -0.000000000213245
 Root      7 :     7.603431919155632   Change is   -0.000000000033407
 Root      8 :     7.619624775769729   Change is   -0.000000000516331
 Root      9 :     7.619794588984018   Change is   -0.000000000516295
 Root     10 :     7.651028276185315   Change is   -0.000000000362625
 Root     11 :     7.651034497276094   Change is   -0.000000000362951
 Root     12 :     7.675289488224087   Change is   -0.000000000016102
 Root     13 :     7.898741432243956   Change is   -0.000000000000900
 Root     14 :     8.009318786109292   Change is   -0.000000000345139
 Root     15 :     8.009325207491230   Change is   -0.000000005224555
 Root     16 :     8.016620055769030   Change is   -0.000000000026851
 Root     17 :     8.130588362942930   Change is   -0.000000002053603
 Root     18 :     8.130680587347642   Change is   -0.000000002043887
 Root     19 :     8.389592126721942   Change is   -0.000000000015824
 Root     20 :     8.389683878538122   Change is   -0.000000000013764
 Iteration     7 Dimension   249 NMult   240 NNew      9
 CISAX will form     9 AO SS matrices at one time.
 NMat=     9 NSing=     5 JSym2X= 0.
 Root      1 has converged.
 Root      2 has converged.
 Root      3 has converged.
 Root      4 has converged.
 Root      5 has converged.
 Root      6 has converged.
 Root      7 has converged.
 Root      8 has converged.
 Root      9 has converged.
 Root     10 has converged.
 Root     11 has converged.
 Root     12 has converged.
 Root     13 has converged.
 Root     14 has converged.
 Root     15 has converged.
 Root     16 has converged.
 Root     17 has converged.
 Root     18 has converged.
 Root     19 has converged.
 Root     20 has converged.
 Excitation Energies [eV] at current iteration:
 Root      1 :     4.157967600171276   Change is    0.000000000000000
 Root      2 :     4.883593790617363   Change is   -0.000000000000042
 Root      3 :     4.883621299041663   Change is   -0.000000000000024
 Root      4 :     5.314728413199338   Change is   -0.000000000000006
 Root      5 :     5.679837544514236   Change is   -0.000000000000012
 Root      6 :     6.678443839730495   Change is   -0.000000000000115
 Root      7 :     7.603431919155632   Change is    0.000000000000000
 Root      8 :     7.619624775763960   Change is   -0.000000000005770
 Root      9 :     7.619794588978157   Change is   -0.000000000005861
 Root     10 :     7.651028276183973   Change is   -0.000000000001341
 Root     11 :     7.651034497274693   Change is   -0.000000000001402
 Root     12 :     7.675289488224063   Change is   -0.000000000000024
 Root     13 :     7.898741432243967   Change is    0.000000000000012
 Root     14 :     8.009318786108024   Change is   -0.000000000001269
 Root     15 :     8.009325207471466   Change is   -0.000000000019764
 Root     16 :     8.016620055769037   Change is    0.000000000000006
 Root     17 :     8.130588362930435   Change is   -0.000000000012495
 Root     18 :     8.130680587335178   Change is   -0.000000000012465
 Root     19 :     8.389592126721935   Change is   -0.000000000000006
 Root     20 :     8.389683878538165   Change is    0.000000000000042
 Convergence achieved on expansion vectors.
 ***********************************************************************
 Excited states from <AA,BB:AA,BB> singles matrix:
 ***********************************************************************
 
 1PDM for each excited state written to RWF  633
 Ground to excited state transition densities written to RWF  633
 Ground to excited state transition electric dipole moments (Au):
       state          X           Y           Z        Dip. S.      Osc.
         1        -0.0000     -0.0000     -0.0000      0.0000      0.0000
         2        -0.0000     -0.0000     -0.0000      0.0000      0.0000
         3        -0.0000     -0.0000     -0.0000      0.0000      0.0000
         4        -0.0000     -0.0000     -0.0000      0.0000      0.0000
         5         0.0000     -0.0001      0.0000      0.0000      0.0000
         6        -0.0001     -0.0002     -0.0000      0.0000      0.0000
         7        -0.0000     -0.0000     -0.0000      0.0000      0.0000
         8        -0.0000     -0.0000     -0.0000      0.0000      0.0000
         9        -0.0000     -0.0000     -0.0000      0.0000      0.0000
        10        -0.0000     -0.0000     -0.0000      0.0000      0.0000
        11        -0.0000     -0.0000     -0.0000      0.0000      0.0000
        12        -0.0000     -0.0000     -0.0000      0.0000      0.0000
        13        -0.0001     -0.0000      0.0000      0.0000      0.0000
        14        -0.0004     -0.0001     -0.0048      0.0000      0.0000
        15        -0.0001      0.0004      0.0010      0.0000      0.0000
        16         0.0000     -0.0002     -0.1836      0.0337      0.0066
        17         0.5748      2.0656     -0.0000      4.5969      0.9157
        18         2.0656     -0.5748      0.0000      4.5972      0.9157
        19         0.0024     -0.0013      0.0000      0.0000      0.0000
        20         0.0013      0.0024      0.0000      0.0000      0.0000
 Ground to excited state transition velocity dipole moments (Au):
       state          X           Y           Z        Dip. S.      Osc.
         1         0.0000      0.0000      0.0000      0.0000      0.0000
         2         0.0000      0.0000      0.0000      0.0000      0.0000
         3         0.0000      0.0000      0.0000      0.0000      0.0000
         4         0.0000      0.0000      0.0000      0.0000      0.0000
         5         0.0000     -0.0000     -0.0000      0.0000      0.0000
         6        -0.0000      0.0000      0.0000      0.0000      0.0000
         7         0.0000      0.0000      0.0000      0.0000      0.0000
         8         0.0000      0.0000      0.0000      0.0000      0.0000
         9         0.0000      0.0000      0.0000      0.0000      0.0000
        10         0.0000      0.0000      0.0000      0.0000      0.0000
        11         0.0000      0.0000      0.0000      0.0000      0.0000
        12         0.0000      0.0000      0.0000      0.0000      0.0000
        13         0.0000      0.0000     -0.0000      0.0000      0.0000
        14         0.0000      0.0000      0.0013      0.0000      0.0000
        15         0.0000     -0.0000     -0.0003      0.0000      0.0000
        16        -0.0000      0.0000      0.0503      0.0025      0.0057
        17        -0.0390     -0.1401      0.0000      0.0211      0.0472
        18        -0.1401      0.0390     -0.0000      0.0211      0.0472
        19        -0.0002      0.0001     -0.0000      0.0000      0.0000
        20        -0.0001     -0.0002     -0.0000      0.0000      0.0000
 Ground to excited state transition magnetic dipole moments (Au):
       state          X           Y           Z
         1         0.0000      0.0000      0.0000
         2         0.0000      0.0000      0.0000
         3         0.0000      0.0000      0.0000
         4         0.0000      0.0000      0.0000
         5        -0.0000      0.0000     -0.0000
         6        -0.0001     -0.0000      0.0003
         7         0.0000      0.0000      0.0000
         8         0.0000      0.0000      0.0000
         9         0.0000      0.0000      0.0000
        10         0.0000      0.0000      0.0000
        11         0.0000      0.0000      0.0000
        12         0.0000      0.0000      0.0000
        13        -0.0000     -0.0000     -0.0000
        14         0.0002     -0.0000     -0.0001
        15        -0.0000     -0.0002     -0.0000
        16        -0.0000      0.0000      0.0000
        17         0.0003     -0.0005     -0.0000
        18         0.0005      0.0003     -0.0000
        19        -0.3078     -0.3308      0.0000
        20        -0.3308      0.3077     -0.0000
 Ground to excited state transition velocity quadrupole moments (Au):
       state          XX          YY          ZZ          XY          XZ          YZ
         1         0.0000      0.0000      0.0000      0.0000      0.0000      0.0000
         2         0.0000      0.0000      0.0000      0.0000      0.0000      0.0000
         3         0.0000      0.0000      0.0000      0.0000      0.0000      0.0000
         4         0.0000      0.0000      0.0000      0.0000      0.0000      0.0000
         5        -0.0000      0.0000     -0.0000     -0.0000     -0.0000     -0.0000
         6        -0.0000     -0.0000      0.0000      0.0000      0.0000      0.0000
         7         0.0000      0.0000      0.0000      0.0000      0.0000      0.0000
         8         0.0000      0.0000      0.0000      0.0000      0.0000      0.0000
         9         0.0000      0.0000      0.0000      0.0000      0.0000      0.0000
        10         0.0000      0.0000      0.0000      0.0000      0.0000      0.0000
        11         0.0000      0.0000      0.0000      0.0000      0.0000      0.0000
        12         0.0000      0.0000      0.0000      0.0000      0.0000      0.0000
        13         0.0001     -0.0001     -0.0000      0.0000      0.0000     -0.0000
        14         0.0000     -0.0000      0.0000     -0.0000      0.0000      0.0000
        15         0.0000      0.0000     -0.0000     -0.0000      0.0000      0.0000
        16         0.0000     -0.0001      0.0000     -0.0001     -0.0000     -0.0000
        17         0.0001     -0.0000     -0.0000      0.0000      0.0002      0.0001
        18        -0.0000      0.0000      0.0000      0.0000     -0.0001      0.0002
        19        -0.0000      0.0000      0.0000     -0.0000      0.1565     -0.1455
        20         0.0000     -0.0000      0.0000     -0.0000     -0.1455     -0.1564
 <0|del|b> * <b|rxdel|0> + <0|del|b> * <b|delr+rdel|0>
 Rotatory Strengths (R) in cgs (10**-40 erg-esu-cm/Gauss)
       state          XX          YY          ZZ    R(velocity)    E-M Angle
         1         0.0000      0.0000      0.0000      0.0000       90.00
         2         0.0000      0.0000      0.0000      0.0000       90.00
         3         0.0000      0.0000      0.0000      0.0000       90.00
         4         0.0000      0.0000      0.0000      0.0000       90.00
         5        -0.0000     -0.0000      0.0000     -0.0000       90.00
         6         0.0000      0.0000      0.0000      0.0000       90.00
         7         0.0000      0.0000      0.0000      0.0000       90.00
         8         0.0000      0.0000      0.0000      0.0000       90.00
         9         0.0000      0.0000      0.0000      0.0000       90.00
        10         0.0000      0.0000      0.0000      0.0000       90.00
        11         0.0000      0.0000      0.0000      0.0000       90.00
        12         0.0000      0.0000      0.0000      0.0000       90.00
        13        -0.0000     -0.0000     -0.0000     -0.0000       90.00
        14        -0.0002     -0.0002      0.0000     -0.0001       90.00
        15         0.0000      0.0000      0.0000      0.0000       90.00
        16        -0.0080      0.0081      0.0000      0.0000       90.00
        17         0.1196     -0.0220      0.0460      0.0479       90.00
        18         0.0206     -0.1182     -0.0462     -0.0480       90.00
        19        -0.0592      0.0978      0.0138      0.0175       90.00
        20        -0.0985      0.0599     -0.0138     -0.0175       90.00
 1/2[<0|r|b>*<b|rxdel|0> + (<0|rxdel|b>*<b|r|0>)*]
 Rotatory Strengths (R) in cgs (10**-40 erg-esu-cm/Gauss)
       state          XX          YY          ZZ     R(length)
         1         0.0000      0.0000      0.0000      0.0000
         2         0.0000      0.0000      0.0000      0.0000
         3         0.0000      0.0000      0.0000      0.0000
         4         0.0000      0.0000      0.0000      0.0000
         5         0.0000      0.0000      0.0000      0.0000
         6        -0.0000     -0.0000      0.0000     -0.0000
         7         0.0000      0.0000      0.0000      0.0000
         8         0.0000      0.0000      0.0000      0.0000
         9         0.0000      0.0000      0.0000      0.0000
        10         0.0000      0.0000      0.0000      0.0000
        11         0.0000      0.0000      0.0000      0.0000
        12         0.0000      0.0000      0.0000      0.0000
        13        -0.0000     -0.0000      0.0000     -0.0000
        14         0.0001     -0.0000     -0.0005     -0.0001
        15        -0.0000      0.0001      0.0000      0.0000
        16         0.0000      0.0000      0.0001      0.0000
        17        -0.1406      0.7738     -0.0000      0.2111
        18        -0.7612      0.1274      0.0000     -0.2113
        19         0.5118     -0.3103     -0.0000      0.0672
        20         0.3145     -0.5157      0.0000     -0.0670
  1/2[<0|del|b>*<b|r|0> + (<0|r|b>*<b|del|0>)*] (Au)
       state          X           Y           Z        Dip. S.   Osc.(frdel)
         1        -0.0000     -0.0000     -0.0000      0.0000      0.0000
         2        -0.0000     -0.0000     -0.0000      0.0000      0.0000
         3        -0.0000     -0.0000     -0.0000      0.0000      0.0000
         4        -0.0000     -0.0000     -0.0000      0.0000      0.0000
         5         0.0000      0.0000     -0.0000     -0.0000     -0.0000
         6         0.0000     -0.0000     -0.0000      0.0000      0.0000
         7        -0.0000     -0.0000     -0.0000      0.0000      0.0000
         8        -0.0000     -0.0000     -0.0000      0.0000      0.0000
         9        -0.0000     -0.0000     -0.0000      0.0000      0.0000
        10        -0.0000     -0.0000     -0.0000      0.0000      0.0000
        11        -0.0000     -0.0000     -0.0000      0.0000      0.0000
        12        -0.0000     -0.0000     -0.0000      0.0000      0.0000
        13        -0.0000     -0.0000     -0.0000      0.0000      0.0000
        14        -0.0000     -0.0000     -0.0000      0.0000      0.0000
        15        -0.0000     -0.0000     -0.0000      0.0000      0.0000
        16        -0.0000     -0.0000     -0.0092      0.0092      0.0062
        17        -0.0224     -0.2894     -0.0000      0.3118      0.2078
        18        -0.2894     -0.0224     -0.0000      0.3118      0.2079
        19        -0.0000     -0.0000     -0.0000      0.0000      0.0000
        20        -0.0000     -0.0000     -0.0000      0.0000      0.0000

 Excitation energies and oscillator strengths:
 
 Excited State   1:      Triplet-A      4.1580 eV  298.18 nm  f=0.0000  <S**2>=2.000
      17 -> 27         0.10548
      20 -> 22        -0.17140
      20 -> 23         0.46232
      21 -> 22         0.46252
      21 -> 23         0.17138
 This state for optimization and/or second-order correction.
 Total Energy, E(CIS/TDA) =  -231.829854305    
 Copying the excited state density for this state as the 1-particle RhoCI density.
 
 Excited State   2:      Triplet-A      4.8836 eV  253.88 nm  f=0.0000  <S**2>=2.000
      20 -> 22         0.49838
      21 -> 23         0.49824
 
 Excited State   3:      Triplet-A      4.8836 eV  253.88 nm  f=0.0000  <S**2>=2.000
      20 -> 23         0.49838
      21 -> 22        -0.49824
 
 Excited State   4:      Triplet-A      5.3147 eV  233.28 nm  f=0.0000  <S**2>=2.000
      20 -> 22        -0.46860
      20 -> 23        -0.17377
      21 -> 22        -0.17365
      21 -> 23         0.46874
 
 Excited State   5:      Singlet-A      5.6798 eV  218.29 nm  f=0.0000  <S**2>=0.000
      20 -> 22         0.46832
      20 -> 23         0.17357
      21 -> 22         0.17359
      21 -> 23        -0.46830
 
 Excited State   6:      Singlet-A      6.6784 eV  185.65 nm  f=0.0000  <S**2>=0.000
      20 -> 22        -0.17148
      20 -> 23         0.46261
      21 -> 22         0.46268
      21 -> 23         0.17147
 
 Excited State   7:      Triplet-A      7.6034 eV  163.06 nm  f=0.0000  <S**2>=2.000
      18 -> 22         0.48968
      19 -> 23         0.49367
 
 Excited State   8:      Triplet-A      7.6196 eV  162.72 nm  f=0.0000  <S**2>=2.000
      17 -> 22         0.62796
      20 -> 27        -0.11035
      21 -> 27         0.30111
 
 Excited State   9:      Triplet-A      7.6198 eV  162.71 nm  f=0.0000  <S**2>=2.000
      17 -> 23         0.62782
      20 -> 27         0.30108
      21 -> 27         0.11028
 
 Excited State  10:      Triplet-A      7.6510 eV  162.05 nm  f=0.0000  <S**2>=2.000
      18 -> 22        -0.10499
      18 -> 23         0.47819
      19 -> 22         0.49328
      19 -> 23         0.10056
 
 Excited State  11:      Triplet-A      7.6510 eV  162.05 nm  f=0.0000  <S**2>=2.000
      18 -> 22         0.48710
      18 -> 23         0.10024
      19 -> 22         0.10526
      19 -> 23        -0.48449
 
 Excited State  12:      Triplet-A      7.6753 eV  161.54 nm  f=0.0000  <S**2>=2.000
      18 -> 23         0.49782
      19 -> 22        -0.48151
 
 Excited State  13:      Singlet-A      7.8987 eV  156.97 nm  f=0.0000  <S**2>=0.000
      18 -> 23        -0.49023
      19 -> 22         0.49386
 
 Excited State  14:      Singlet-A      8.0093 eV  154.80 nm  f=0.0000  <S**2>=0.000
      18 -> 22        -0.41629
      18 -> 23         0.25121
      19 -> 22         0.25374
      19 -> 23         0.44252
 
 Excited State  15:      Singlet-A      8.0093 eV  154.80 nm  f=0.0000  <S**2>=0.000
      18 -> 22         0.25020
      18 -> 23         0.43160
      19 -> 22         0.42756
      19 -> 23        -0.25481
 
 Excited State  16:      Singlet-A      8.0166 eV  154.66 nm  f=0.0066  <S**2>=0.000
      18 -> 22         0.50507
      19 -> 23         0.47978
 
 Excited State  17:      Singlet-A      8.1306 eV  152.49 nm  f=0.9157  <S**2>=0.000
      20 -> 23         0.47994
      21 -> 22        -0.47986
 
 Excited State  18:      Singlet-A      8.1307 eV  152.49 nm  f=0.9157  <S**2>=0.000
      20 -> 22         0.47988
      21 -> 23         0.47991
 
 Excited State  19:      Singlet-A      8.3896 eV  147.78 nm  f=0.0000  <S**2>=0.000
      21 -> 24         0.70198
 
 Excited State  20:      Singlet-A      8.3897 eV  147.78 nm  f=0.0000  <S**2>=0.000
      20 -> 24         0.70198
 SavETr:  write IOETrn=   770 NScale= 10 NData=  16 NLR=1 NState=   20 LETran=     370.
 The selected state is a triplet.
 CISGrd: IGrad=1 NXY=1 DFT=T
 CISAX will form     1 AO SS matrices at one time.
 NMat=     1 NSing=     0 JSym2X= 0.
 Leave Link  914 at Mon Jul 17 22:08:26 2023, MaxMem=   268435456 cpu:             865.1 elap:             440.0
 (Enter /gpfs1/apps/software/Gaussian16/AVX/g16/l1002.exe)
 Minotr:  Closed shell wavefunction.
          Computing CIS/TDA/TD derivatives.
          Using Z-Vector for PSCF gradient.
          Skipping F1 and S1 gradient terms here.
          Frozen-core window.
          Direct CPHF calculation.
          Differentiating once with respect to electric field.
                with respect to dipole field.
          Electric field/nuclear overlap derivatives assumed to be zero.
          Requested convergence is 1.0D-10 RMS, and 1.0D-09 maximum.
          NewPWx=F KeepS1=T KeepF1=T KeepIn=T MapXYZ=F SortEE=F KeepMc=T.
 Keep R1 ints in memory in canonical form, NReq=28255554.
 FoFCou: FMM=F IPFlag=           0 FMFlag=           0 FMFlg1=           0
         NFxFlg=           0 DoJE=F BraDBF=F KetDBF=F FulRan=T
         wScrn=  0.000000 ICntrl=       600 IOpCl=  0 I1Cent=           0 NGrid=           0
         NMat0=    1 NMatS0=   7260 NMatT0=    0 NMatD0=    1 NMtDS0=    0 NMtDT0=    0
 Symmetry not used in FoFCou.
 Two-electron integral symmetry not used.
          MDV=     268435456 using IRadAn=       5.
          Solving linear equations separately, MaxMat=       0.
          There are     1 degrees of freedom in the 1st order CPHF.  IDoFFX=0 NUNeed=     1.
 LinEq1:  Iter=  0 NonCon=     1 RMS=1.45D-03 Max=2.39D-02 NDo=     1
 AX will form     1 AO Fock derivatives at one time.
 LinEq1:  Iter=  1 NonCon=     1 RMS=6.34D-04 Max=7.96D-03 NDo=     1
 LinEq1:  Iter=  2 NonCon=     1 RMS=1.59D-04 Max=3.19D-03 NDo=     1
 LinEq1:  Iter=  3 NonCon=     1 RMS=9.89D-06 Max=2.30D-04 NDo=     1
 LinEq1:  Iter=  4 NonCon=     1 RMS=7.66D-07 Max=1.76D-05 NDo=     1
 LinEq1:  Iter=  5 NonCon=     1 RMS=3.97D-07 Max=8.10D-06 NDo=     1
 LinEq1:  Iter=  6 NonCon=     1 RMS=9.92D-08 Max=2.06D-06 NDo=     1
 LinEq1:  Iter=  7 NonCon=     1 RMS=7.83D-08 Max=1.03D-06 NDo=     1
 LinEq1:  Iter=  8 NonCon=     1 RMS=4.01D-09 Max=4.63D-08 NDo=     1
 LinEq1:  Iter=  9 NonCon=     1 RMS=5.38D-10 Max=7.38D-09 NDo=     1
 LinEq1:  Iter= 10 NonCon=     1 RMS=2.15D-10 Max=3.97D-09 NDo=     1
 LinEq1:  Iter= 11 NonCon=     1 RMS=1.27D-10 Max=2.46D-09 NDo=     1
 LinEq1:  Iter= 12 NonCon=     0 RMS=3.91D-11 Max=7.06D-10 NDo=     1
 Linear equations converged to 1.000D-10 1.000D-09 after    12 iterations.
 End of Minotr F.D. properties file   721 does not exist.
 End of Minotr F.D. properties file   722 does not exist.
 End of Minotr F.D. properties file   788 does not exist.
 Leave Link 1002 at Mon Jul 17 22:09:01 2023, MaxMem=   268435456 cpu:              68.4 elap:              34.6
 (Enter /gpfs1/apps/software/Gaussian16/AVX/g16/l601.exe)
 Copying SCF densities to generalized density rwf, IOpCl= 0 IROHF=0.

 **********************************************************************

            Population analysis using the CI Density.

 **********************************************************************

 Orbital symmetries:
       Occupied  (A) (A) (A) (A) (A) (A) (A) (A) (A) (A) (A) (A)
                 (A) (A) (A) (A) (A) (A) (A) (A) (A)
       Virtual   (A) (A) (A) (A) (A) (A) (A) (A) (A) (A) (A) (A)
                 (A) (A) (A) (A) (A) (A) (A) (A) (A) (A) (A) (A)
                 (A) (A) (A) (A) (A) (A) (A) (A) (A) (A) (A) (A)
                 (A) (A) (A) (A) (A) (A) (A) (A) (A) (A) (A) (A)
                 (A) (A) (A) (A) (A) (A) (A) (A) (A) (A) (A) (A)
                 (A) (A) (A) (A) (A) (A) (A) (A) (A) (A) (A) (A)
                 (A) (A) (A) (A) (A) (A) (A) (A) (A) (A) (A) (A)
                 (A) (A) (A) (A) (A) (A) (A) (A) (A) (A) (A) (A)
                 (A) (A) (A)
 The electronic state is 1-A.
 Alpha  occ. eigenvalues --  -10.23632 -10.23603 -10.23603 -10.23542 -10.23542
 Alpha  occ. eigenvalues --  -10.23513  -0.87481  -0.76375  -0.76374  -0.61598
 Alpha  occ. eigenvalues --   -0.61597  -0.53450  -0.47032  -0.45376  -0.42846
 Alpha  occ. eigenvalues --   -0.42846  -0.37584  -0.34869  -0.34867  -0.25810
 Alpha  occ. eigenvalues --   -0.25809
 Alpha virt. eigenvalues --    0.00831   0.00832   0.10148   0.15835   0.15835
 Alpha virt. eigenvalues --    0.17382   0.19567   0.19568   0.20581   0.31118
 Alpha virt. eigenvalues --    0.31119   0.32824   0.32826   0.47960   0.54679
 Alpha virt. eigenvalues --    0.56089   0.56762   0.57718   0.60625   0.62191
 Alpha virt. eigenvalues --    0.62191   0.62273   0.62274   0.64165   0.64166
 Alpha virt. eigenvalues --    0.68953   0.68953   0.76582   0.84265   0.84265
 Alpha virt. eigenvalues --    0.85349   0.86389   0.86390   0.94533   0.95732
 Alpha virt. eigenvalues --    0.95734   0.98747   1.09522   1.09524   1.14801
 Alpha virt. eigenvalues --    1.14804   1.22453   1.26609   1.30370   1.41321
 Alpha virt. eigenvalues --    1.41322   1.43580   1.43582   1.45167   1.45169
 Alpha virt. eigenvalues --    1.75802   1.77431   1.82966   1.90526   1.94093
 Alpha virt. eigenvalues --    1.94096   1.98871   1.98871   1.99029   1.99030
 Alpha virt. eigenvalues --    2.03783   2.09225   2.09227   2.31105   2.31107
 Alpha virt. eigenvalues --    2.37448   2.37453   2.37828   2.42480   2.42571
 Alpha virt. eigenvalues --    2.42574   2.46179   2.46181   2.51232   2.51235
 Alpha virt. eigenvalues --    2.54560   2.61207   2.61335   2.61336   2.67603
 Alpha virt. eigenvalues --    2.78793   2.83457   2.83461   3.07096   3.07100
 Alpha virt. eigenvalues --    3.21590   3.26069   3.27425   3.27426   3.41950
 Alpha virt. eigenvalues --    3.53844   3.53848   3.98686   4.17048   4.19793
 Alpha virt. eigenvalues --    4.19793   4.47320   4.47320   4.86840
     Molecular Orbital Coefficients:
                          17        18        19        20        21
                           O         O         O         O         O
     Eigenvalues --    -0.37584  -0.34869  -0.34867  -0.25810  -0.25809
   1 1   C  1S          0.00000   0.00402  -0.00113   0.00001   0.00000
   2        2S         -0.00000  -0.01579   0.00442  -0.00003  -0.00002
   3        2PX         0.00001  -0.22118   0.03193  -0.00001  -0.00001
   4        2PY        -0.00018   0.04732   0.25963   0.00004  -0.00005
   5        2PZ         0.22027   0.00003   0.00016   0.23759  -0.23829
   6        3S         -0.00001   0.01947  -0.00542   0.00017   0.00016
   7        3PX         0.00000  -0.06409   0.00579   0.00014   0.00012
   8        3PY        -0.00007   0.02201   0.10460   0.00003  -0.00001
   9        3PZ         0.12887   0.00002   0.00010   0.17297  -0.17348
  10        4XX         0.00000   0.01946  -0.00766   0.00000   0.00000
  11        4YY        -0.00000  -0.01343   0.00598   0.00000   0.00000
  12        4ZZ         0.00000  -0.00062   0.00017   0.00000   0.00000
  13        4XY        -0.00001   0.00736   0.00951   0.00000  -0.00000
  14        4XZ         0.01057   0.00000   0.00001   0.00601  -0.00301
[...]
 111 11  H  1S          0.00000   0.00000  -0.00000  -0.00000  -0.00000
 112        2S          0.00000   0.00001  -0.00000  -0.00000  -0.00000
 113        3PX        -0.00000  -0.00000  -0.00000   0.00000  -0.00000
 114        3PY        -0.00000  -0.00000   0.00000  -0.00000  -0.00000
 115        3PZ         0.00000   0.00000   0.00000   0.00000   0.00000
 116 12  H  1S         -0.00000  -0.00000  -0.00000   0.00000  -0.00000
 117        2S         -0.00000  -0.00016  -0.00000   0.00000  -0.00000
 118        3PX         0.00000   0.00000  -0.00000  -0.00000   0.00000
 119        3PY         0.00000   0.00000   0.00000  -0.00000   0.00000
 120        3PZ        -0.00000  -0.00000  -0.00000   0.00000  -0.00000
                         101       102       103       104       105
 101 9   H  1S          0.21519
 102        2S          0.10794   0.14042
 103        3PX         0.00000   0.00000   0.00018
 104        3PY         0.00000   0.00000   0.00000   0.00043
 105        3PZ         0.00000   0.00000   0.00000   0.00000   0.00023
 106 10  H  1S         -0.00001  -0.00082  -0.00000  -0.00000  -0.00000
 107        2S         -0.00082  -0.00379  -0.00002  -0.00003   0.00000
 108        3PX        -0.00000  -0.00001   0.00000   0.00000  -0.00000
 109        3PY        -0.00000  -0.00003   0.00000   0.00000  -0.00000
 110        3PZ         0.00000  -0.00000  -0.00000   0.00000   0.00000
 111 11  H  1S         -0.00000  -0.00000   0.00000   0.00000  -0.00000
 112        2S         -0.00000  -0.00016   0.00000   0.00000  -0.00000
 113        3PX        -0.00000  -0.00000  -0.00000   0.00000  -0.00000
 114        3PY         0.00000   0.00000  -0.00000  -0.00000   0.00000
 115        3PZ        -0.00000  -0.00000   0.00000   0.00000  -0.00000
 116 12  H  1S          0.00000   0.00000  -0.00000  -0.00000   0.00000
 117        2S          0.00000   0.00001  -0.00000  -0.00000   0.00000
 118        3PX        -0.00000  -0.00000  -0.00000   0.00000  -0.00000
 119        3PY        -0.00000  -0.00000   0.00000  -0.00000   0.00000
 120        3PZ        -0.00000  -0.00000   0.00000  -0.00000   0.00000
                         106       107       108       109       110
 106 10  H  1S          0.21518
 107        2S          0.10794   0.14041
 108        3PX         0.00000   0.00000   0.00049
 109        3PY         0.00000   0.00000   0.00000   0.00012
 110        3PZ         0.00000   0.00000   0.00000   0.00000   0.00023
 111 11  H  1S         -0.00001  -0.00082  -0.00000  -0.00000   0.00000
 112        2S         -0.00082  -0.00379  -0.00001  -0.00004  -0.00000
 113        3PX        -0.00000  -0.00001   0.00000   0.00000  -0.00000
 114        3PY        -0.00000  -0.00003   0.00000   0.00000   0.00000
 115        3PZ        -0.00000   0.00000  -0.00000  -0.00000   0.00000
 116 12  H  1S         -0.00000  -0.00000   0.00000   0.00000  -0.00000
 117        2S         -0.00000  -0.00016  -0.00000   0.00000  -0.00000
 118        3PX         0.00000   0.00000  -0.00000  -0.00000  -0.00000
 119        3PY        -0.00000  -0.00000   0.00000  -0.00000  -0.00000
 120        3PZ        -0.00000  -0.00000   0.00000   0.00000  -0.00000
                         111       112       113       114       115
 111 11  H  1S          0.21519
 112        2S          0.10794   0.14042
 113        3PX         0.00000   0.00000   0.00025
 114        3PY         0.00000   0.00000   0.00000   0.00036
 115        3PZ         0.00000   0.00000   0.00000   0.00000   0.00023
 116 12  H  1S         -0.00001  -0.00082  -0.00000  -0.00000  -0.00000
 117        2S         -0.00082  -0.00379  -0.00004  -0.00000  -0.00000
 118        3PX        -0.00000  -0.00004   0.00000   0.00000   0.00000
 119        3PY        -0.00000   0.00000  -0.00000  -0.00000   0.00000
 120        3PZ        -0.00000  -0.00000   0.00000  -0.00000   0.00000
                         116       117       118       119       120
 116 12  H  1S          0.21519
 117        2S          0.10794   0.14042
 118        3PX         0.00000   0.00000   0.00018
 119        3PY         0.00000   0.00000   0.00000   0.00043
 120        3PZ         0.00000   0.00000   0.00000   0.00000   0.00023
     Gross orbital populations:
                           1
   1 1   C  1S          1.99267
   2        2S          0.69336
   3        2PX         0.74042
   4        2PY         0.75323
   5        2PZ         0.56454
   6        3S          0.50917
   7        3PX         0.26248
   8        3PY         0.16953
   9        3PZ         0.42249
  10        4XX         0.00910
  11        4YY         0.00809
  12        4ZZ        -0.01939
  13        4XY         0.01093
  14        4XZ         0.00260
  15        4YZ         0.00726
  16 2   C  1S          1.99267
  17        2S          0.69336
  18        2PX         0.74881
  19        2PY         0.74484
  20        2PZ         0.56454
  21        3S          0.50917
  22        3PX         0.20169
  23        3PY         0.23031
  24        3PZ         0.42249
  25        4XX         0.00741
  26        4YY         0.00771
  27        4ZZ        -0.01939
  28        4XY         0.01300
  29        4XZ         0.00565
  30        4YZ         0.00421
  31 3   C  1S          1.99267
  32        2S          0.69336
  33        2PX         0.75127
  34        2PY         0.74238
  35        2PZ         0.56454
  36        3S          0.50917
  37        3PX         0.18383
  38        3PY         0.24819
  39        3PZ         0.42250
  40        4XX         0.00765
  41        4YY         0.00834
  42        4ZZ        -0.01939
  43        4XY         0.01212
  44        4XZ         0.00654
  45        4YZ         0.00332
  46 4   C  1S          1.99267
  47        2S          0.69336
  48        2PX         0.74041
  49        2PY         0.75323
  50        2PZ         0.56454
  51        3S          0.50917
  52        3PX         0.26247
  53        3PY         0.16954
  54        3PZ         0.42250
  55        4XX         0.00910
  56        4YY         0.00809
  57        4ZZ        -0.01939
  58        4XY         0.01093
  59        4XZ         0.00260
  60        4YZ         0.00726
  61 5   C  1S          1.99267
  62        2S          0.69336
  63        2PX         0.74879
  64        2PY         0.74486
  65        2PZ         0.56454
  66        3S          0.50918
  67        3PX         0.20170
  68        3PY         0.23031
  69        3PZ         0.42249
  70        4XX         0.00741
  71        4YY         0.00771
  72        4ZZ        -0.01939
  73        4XY         0.01300
  74        4XZ         0.00565
  75        4YZ         0.00421
  76 6   C  1S          1.99267
  77        2S          0.69336
  78        2PX         0.75125
  79        2PY         0.74240
  80        2PZ         0.56454
  81        3S          0.50916
  82        3PX         0.18384
  83        3PY         0.24816
  84        3PZ         0.42250
  85        4XX         0.00765
  86        4YY         0.00834
  87        4ZZ        -0.01939
  88        4XY         0.01212
  89        4XZ         0.00654
  90        4YZ         0.00332
  91 7   H  1S          0.52924
  92        2S          0.33139
  93        3PX         0.00782
  94        3PY         0.00198
  95        3PZ         0.00310
  96 8   H  1S          0.52924
  97        2S          0.33138
  98        3PX         0.00400
  99        3PY         0.00580
 100        3PZ         0.00310
 101 9   H  1S          0.52924
 102        2S          0.33139
 103        3PX         0.00288
 104        3PY         0.00692
 105        3PZ         0.00310
 106 10  H  1S          0.52924
 107        2S          0.33138
 108        3PX         0.00782
 109        3PY         0.00198
 110        3PZ         0.00310
 111 11  H  1S          0.52924
 112        2S          0.33139
 113        3PX         0.00400
 114        3PY         0.00580
 115        3PZ         0.00310
 116 12  H  1S          0.52924
 117        2S          0.33139
 118        3PX         0.00288
 119        3PY         0.00692
 120        3PZ         0.00310
          Condensed to atoms (all electrons):
               1          2          3          4          5          6
     1  C    4.984113   0.477053  -0.051031  -0.022375  -0.051038   0.477173
     2  C    0.477053   4.984099   0.477173  -0.051043  -0.022377  -0.051039
     3  C   -0.051031   0.477173   4.984007   0.477154  -0.051034  -0.022386
     4  C   -0.022375  -0.051043   0.477154   4.984102   0.477071  -0.051035
     5  C   -0.051038  -0.022377  -0.051034   0.477071   4.984110   0.477154
     6  C    0.477173  -0.051039  -0.022386  -0.051035   0.477154   4.983989
     7  H    0.379906  -0.038284   0.004399   0.000450   0.004399  -0.038278
     8  H   -0.038286   0.379909  -0.038279   0.004399   0.000450   0.004399
     9  H    0.004399  -0.038283   0.379904  -0.038286   0.004400   0.000450
    10  H    0.000450   0.004399  -0.038279   0.379910  -0.038282   0.004399
    11  H    0.004399   0.000450   0.004400  -0.038288   0.379907  -0.038279
    12  H   -0.038286   0.004400   0.000450   0.004399  -0.038281   0.379908
               7          8          9         10         11         12
     1  C    0.379906  -0.038286   0.004399   0.000450   0.004399  -0.038286
     2  C   -0.038284   0.379909  -0.038283   0.004399   0.000450   0.004400
     3  C    0.004399  -0.038279   0.379904  -0.038279   0.004400   0.000450
     4  C    0.000450   0.004399  -0.038286   0.379910  -0.038288   0.004399
     5  C    0.004399   0.000450   0.004400  -0.038282   0.379907  -0.038281
     6  C   -0.038278   0.004399   0.000450   0.004399  -0.038279   0.379908
     7  H    0.572314  -0.005529  -0.000165   0.000014  -0.000165  -0.005530
     8  H   -0.005529   0.572313  -0.005530  -0.000165   0.000014  -0.000165
     9  H   -0.000165  -0.005530   0.572330  -0.005530  -0.000165   0.000014
    10  H    0.000014  -0.000165  -0.005530   0.572305  -0.005529  -0.000165
    11  H   -0.000165   0.000014  -0.000165  -0.005529   0.572320  -0.005529
    12  H   -0.005530  -0.000165   0.000014  -0.000165  -0.005529   0.572319
 Mulliken charges:
               1
     1  C   -0.126479
     2  C   -0.126456
     3  C   -0.126478
     4  C   -0.126457
     5  C   -0.126478
     6  C   -0.126456
     7  H    0.126469
     8  H    0.126469
     9  H    0.126461
    10  H    0.126474
    11  H    0.126465
    12  H    0.126466
 Sum of Mulliken charges =  -0.00000
 Mulliken charges with hydrogens summed into heavy atoms:
               1
     1  C   -0.000010
     2  C    0.000013
     3  C   -0.000017
     4  C    0.000017
     5  C   -0.000013
     6  C    0.000010
 Electronic spatial extent (au):  <R**2>=            456.3629
 Charge=             -0.0000 electrons
 Dipole moment (field-independent basis, Debye):
    X=              0.0000    Y=              0.0000    Z=              0.0000  Tot=              0.0000
 Quadrupole moment (field-independent basis, Debye-Ang):
   XX=            -31.5647   YY=            -31.5662   ZZ=            -38.5643
   XY=             -0.0002   XZ=              0.0000   YZ=             -0.0000
 Traceless Quadrupole moment (field-independent basis, Debye-Ang):
   XX=              2.3337   YY=              2.3322   ZZ=             -4.6659
   XY=             -0.0002   XZ=              0.0000   YZ=             -0.0000
 Octapole moment (field-independent basis, Debye-Ang**2):
  XXX=              0.0004  YYY=             -0.0005  ZZZ=              0.0000  XYY=             -0.0003
  XXY=              0.0007  XXZ=              0.0008  XZZ=              0.0000  YZZ=             -0.0000
  YYZ=             -0.0004  XYZ=             -0.0019
 Hexadecapole moment (field-independent basis, Debye-Ang**3):
 XXXX=           -266.2749 YYYY=           -266.2748 ZZZZ=            -39.8765 XXXY=             -0.0013
 XXXZ=             -0.0001 YYYX=              0.0003 YYYZ=             -0.0001 ZZZX=             -0.0000
 ZZZY=              0.0001 XXYY=            -88.7576 XXZZ=            -60.7844 YYZZ=            -60.7829
 XXYZ=             -0.0001 YYXZ=              0.0001 ZZXY=             -0.0003
 N-N= 2.037556373918D+02 E-N=-9.448903970509D+02  KE= 2.302429888826D+02
 Orbital energies and kinetic energies (alpha):
                                 1                 2
  17         O                -0.375835          0.925660
  18         O                -0.348692          1.382360
  19         O                -0.348670          1.382371
  20         O                -0.258097          1.108677
  21         O                -0.258094          1.108672
  22         V                 0.008314          1.334671
  23         V                 0.008323          1.334671
  24         V                 0.101476          0.899436
  25         V                 0.158348          0.945432
  26         V                 0.158352          0.945438
 Total kinetic energy from orbitals= 2.298996654261D+02
 No NMR shielding tensors so no spin-rotation constants.
 Leave Link  601 at Mon Jul 17 22:09:01 2023, MaxMem=   268435456 cpu:               0.2 elap:               0.1
 (Enter /gpfs1/apps/software/Gaussian16/AVX/g16/l9999.exe)
 Electronic transition elements 
                 1             2             3             4             5 
      1  -0.231830D+03 -0.231803D+03 -0.231803D+03 -0.231787D+03 -0.231774D+03
      2   0.000000D+00  0.000000D+00  0.000000D+00  0.000000D+00  0.297845D-04
      3   0.000000D+00  0.000000D+00  0.000000D+00  0.000000D+00  0.537792D-04
      4   0.000000D+00  0.000000D+00  0.000000D+00  0.000000D+00  0.000000D+00
      5   0.000000D+00  0.000000D+00  0.000000D+00  0.000000D+00  0.223632D-05
      6   0.000000D+00  0.000000D+00  0.000000D+00  0.000000D+00  0.125816D-05
      7   0.000000D+00  0.000000D+00  0.000000D+00  0.000000D+00  0.000000D+00
      8   0.000000D+00  0.000000D+00  0.000000D+00  0.000000D+00 -0.568163D-05
      9   0.000000D+00  0.000000D+00  0.000000D+00  0.000000D+00 -0.627191D-05
     10   0.000000D+00  0.000000D+00  0.000000D+00  0.000000D+00  0.215250D-04
     11   0.000000D+00  0.000000D+00  0.000000D+00  0.000000D+00 -0.135548D-05
     12   0.000000D+00  0.000000D+00  0.000000D+00  0.000000D+00  0.531540D-05
     13   0.000000D+00  0.000000D+00  0.000000D+00  0.000000D+00 -0.100435D-04
     14   0.000000D+00  0.000000D+00  0.000000D+00  0.000000D+00  0.162358D-05
     15   0.000000D+00  0.000000D+00  0.000000D+00  0.000000D+00  0.135026D-04
     16   0.000000D+00  0.000000D+00  0.000000D+00  0.000000D+00 -0.416632D-05
                 6             7             8             9            10 
      1  -0.231737D+03 -0.231703D+03 -0.231703D+03 -0.231703D+03 -0.231701D+03
      2  -0.925837D-04  0.000000D+00  0.000000D+00  0.000000D+00  0.000000D+00
      3   0.178048D-03  0.000000D+00  0.000000D+00  0.000000D+00  0.000000D+00
      4   0.314974D-04  0.000000D+00  0.000000D+00  0.000000D+00  0.000000D+00
      5  -0.224746D-05  0.000000D+00  0.000000D+00  0.000000D+00  0.000000D+00
      6  -0.103461D-05  0.000000D+00  0.000000D+00  0.000000D+00  0.000000D+00
      7  -0.159603D-05  0.000000D+00  0.000000D+00  0.000000D+00  0.000000D+00
      8  -0.125030D-03  0.000000D+00  0.000000D+00  0.000000D+00  0.000000D+00
      9   0.124490D-05  0.000000D+00  0.000000D+00  0.000000D+00  0.000000D+00
     10  -0.339404D-03  0.000000D+00  0.000000D+00  0.000000D+00  0.000000D+00
     11  -0.702232D-05  0.000000D+00  0.000000D+00  0.000000D+00  0.000000D+00
     12  -0.102948D-04  0.000000D+00  0.000000D+00  0.000000D+00  0.000000D+00
     13   0.161840D-05  0.000000D+00  0.000000D+00  0.000000D+00  0.000000D+00
     14  -0.603759D-05  0.000000D+00  0.000000D+00  0.000000D+00  0.000000D+00
     15  -0.180919D-05  0.000000D+00  0.000000D+00  0.000000D+00  0.000000D+00
     16   0.201599D-04  0.000000D+00  0.000000D+00  0.000000D+00  0.000000D+00
                11            12            13            14            15 
      1  -0.231701D+03 -0.231701D+03 -0.231692D+03 -0.231688D+03 -0.231688D+03
      2   0.000000D+00  0.000000D+00 -0.715673D-04 -0.434548D-03 -0.105303D-03
      3   0.000000D+00  0.000000D+00  0.332282D-05  0.108140D-03 -0.434845D-03
      4   0.000000D+00  0.000000D+00 -0.250366D-05  0.483683D-02 -0.951757D-03
      5   0.000000D+00  0.000000D+00  0.765454D-05  0.327501D-04  0.812701D-05
      6   0.000000D+00  0.000000D+00  0.000000D+00 -0.731711D-05  0.318514D-04
      7   0.000000D+00  0.000000D+00  0.000000D+00 -0.132438D-02  0.260722D-03
      8   0.000000D+00  0.000000D+00 -0.104543D-04  0.218373D-03 -0.338184D-04
      9   0.000000D+00  0.000000D+00  0.452390D-04  0.286347D-04  0.188520D-03
     10   0.000000D+00  0.000000D+00  0.403182D-04  0.133695D-03  0.227730D-04
     11   0.000000D+00  0.000000D+00  0.104337D-03  0.577081D-05  0.132082D-04
     12   0.000000D+00  0.000000D+00 -0.103354D-03 -0.425838D-05  0.424555D-04
     13   0.000000D+00  0.000000D+00  0.000000D+00  0.430868D-05 -0.486133D-04
     14   0.000000D+00  0.000000D+00 -0.257652D-04  0.208361D-04  0.694276D-05
     15   0.000000D+00  0.000000D+00 -0.919217D-05 -0.343129D-05 -0.163558D-04
     16   0.000000D+00  0.000000D+00 -0.262703D-05  0.160647D-04  0.000000D+00
                16            17            18            19            20 
      1  -0.231688D+03 -0.231684D+03 -0.231684D+03 -0.231674D+03 -0.231674D+03
      2   0.271738D-04  0.664488D+00  0.203853D+01  0.229156D-02  0.144661D-02
      3   0.157913D-03 -0.203847D+01  0.664498D+00  0.142780D-02 -0.230846D-02
      4   0.183598D+00  0.975688D-05 -0.344948D-05  0.000000D+00  0.000000D+00
      5  -0.494221D-05 -0.450668D-01 -0.138254D+00 -0.183397D-03 -0.115381D-03
      6  -0.132399D-04  0.138248D+00 -0.450659D-01 -0.114064D-03  0.184625D-03
      7  -0.502747D-01 -0.267605D-05  0.000000D+00  0.153645D-05  0.000000D+00
      8  -0.181057D-04  0.322456D-03  0.534318D-03 -0.321924D+00 -0.317083D+00
      9  -0.795567D-05  0.544340D-03 -0.290407D-03  0.317036D+00 -0.321912D+00
     10  -0.110809D-05  0.439057D-05  0.136324D-04 -0.127721D-05  0.142966D-05
     11   0.251623D-04  0.538982D-04 -0.323259D-04 -0.115950D-05  0.154685D-04
     12  -0.384284D-04 -0.500172D-04  0.312325D-04  0.511150D-05 -0.120797D-04
     13   0.290012D-05  0.000000D+00  0.000000D+00  0.000000D+00  0.000000D+00
     14   0.136629D-03 -0.270939D-04 -0.378748D-04  0.953115D-05  0.990371D-05
     15   0.299742D-05 -0.197498D-03  0.123631D-03 -0.149944D+00  0.152240D+00
     16   0.000000D+00  0.121679D-03  0.197627D-03 -0.152219D+00 -0.149919D+00
 Unable to Open any file for archive entry.
 1\1\GINC-KENNEDY73\SP\RPBE1PBE TDA-FC\6-31G(d,p)\C6H6\OSL\17-Jul-2023\
 0\\#p TDA=(nstates=10, root=1, 50-50) PBE1PBE/6-31G** SCF=(DIIS) Symme
 try=(Tight) EmpiricalDispersion=(GD3BJ) Integral=(Ultrafine) Populatio
 n=(Regular) Density=(Current) 6D 10F GFInput\\Benzene_Excited_States_T
 DA_10_Singlets_10_Triplets_PBE0__GD3BJ__Gas_Phase_Pople_Basis_Sets_6_3
 1G__\\0,1\C,0,-1.38918,0.09106,0.00001\C,0,-0.77341,-1.15755,0.00012\C
 ,0,0.61572,-1.24855,-0.00012\C,0,1.3892,-0.09102,0.\C,0,0.77343,1.1575
 2,0.00013\C,0,-0.61576,1.24855,-0.00013\H,0,-2.47301,0.16202,-0.00003\
 H,0,-1.37688,-2.06062,-0.00012\H,0,1.09618,-2.22266,0.00013\H,0,2.4730
 2,-0.16208,-0.00003\H,0,1.37686,2.06061,-0.00013\H,0,-1.09617,2.22268,
 0.00012\\Version=ES64L-G16RevC.01\State=1-A\HF=-231.9826568\RMSD=4.239
 e-09\Dipole=0.000002,-0.0000057,-0.0000169\Quadrupole=1.7350233,1.7339
 717,-3.468995,0.0002296,-0.0000012,-0.0000237\PG=C01 [X(C6H6)]\\@
 The archive entry for this job was punched.


 K N O W I N G  IS A BARRIER WHICH PREVENTS LEARNING

                     -- TEACHING OF THE BENE GESSERIT
 Job cpu time:       0 days  0 hours 16 minutes  8.6 seconds.
 Elapsed time:       0 days  0 hours  8 minutes 12.8 seconds.
 File lengths (MBytes):  RWF=    175 Int=      0 D2E=      0 Chk=     12 Scr=      2
 Normal termination of Gaussian 16 at Mon Jul 17 22:09:01 2023.
